48
Properties=species:S:1:pos:R:3:forces:R:3 charge=T mult=T 0=T 4=T energy=6.203043061326382e-29 pbc="F F F"
S       -0.01764475      -1.32636804       2.05491925       0.00000000       0.00000000      -0.00000000
O       -0.16925775       1.29104196      -1.15820575      -0.00000000       0.00000000      -0.00000000
Fe      -0.02571675       0.36948096       0.16234625      -0.00000000      -0.00000000       0.00000000
N       -0.25634275      -1.41389904      -0.77770675       0.00000000      -0.00000000      -0.00000000
N       -2.00991675       0.37800896       0.56723625       0.00000000       0.00000000       0.00000000
N        0.23343925       1.93218096       1.40840625      -0.00000000      -0.00000000      -0.00000000
N        1.97718725       0.19017396      -0.01959575      -0.00000000      -0.00000000       0.00000000
C        0.72992225      -2.15043204      -1.39117875      -0.00000000      -0.00000000       0.00000000
C        0.15447525      -3.30023804      -2.04899475       0.00000000       0.00000000       0.00000000
C       -1.19339375      -3.23784904      -1.84589875       0.00000000       0.00000000       0.00000000
C       -1.44513275      -2.05256904      -1.06311375       0.00000000       0.00000000       0.00000000
C       -2.95684975      -0.47714204       0.07146925       0.00000000      -0.00000000      -0.00000000
C       -4.27796175      -0.05288204       0.47916025      -0.00000000      -0.00000000      -0.00000000
C       -4.11193375       1.07067296       1.23387925      -0.00000000       0.00000000       0.00000000
C       -2.69024975       1.33107396       1.28103625       0.00000000       0.00000000       0.00000000
C       -0.74997075       2.66048796       2.02065825      -0.00000000      -0.00000000       0.00000000
C       -0.17424275       3.77487596       2.74008425       0.00000000      -0.00000000       0.00000000
C        1.17418625       3.71034496       2.54373625       0.00000000       0.00000000       0.00000000
C        1.41422025       2.55713096       1.70512225       0.00000000      -0.00000000      -0.00000000
C        2.92355325       1.06337396       0.45576225       0.00000000       0.00000000      -0.00000000
C        4.23785925       0.67085896      -0.00094375      -0.00000000       0.00000000       0.00000000
C        4.06859625      -0.44736004      -0.76435775      -0.00000000      -0.00000000      -0.00000000
C        2.65208425      -0.73579904      -0.76728475       0.00000000      -0.00000000      -0.00000000
C        2.08097625      -1.83569404      -1.39958975       0.00000000       0.00000000      -0.00000000
H        2.74825525      -2.50258704      -1.94759975       0.00000000      -0.00000000      -0.00000000
C       -2.70292075      -1.61472904      -0.68641475       0.00000000      -0.00000000      -0.00000000
H       -3.55957475      -2.21105404      -1.00322775       0.00000000      -0.00000000      -0.00000000
C       -2.11232675       2.38766496       1.96946325       0.00000000       0.00000000       0.00000000
H       -2.77997675       3.06325196       2.50636225      -0.00000000       0.00000000       0.00000000
C        2.67264925       2.15861396       1.26943925       0.00000000       0.00000000       0.00000000
H        3.52741125       2.76006296       1.58262825       0.00000000       0.00000000       0.00000000
C       -1.33603975      -0.25711504      -3.96828675       0.00000000       0.00000000       0.00000000
H       -0.93628075       0.26433896      -3.08723675       0.00000000       0.00000000       0.00000000
H       -1.20081575       0.36574296      -4.86465175      -0.00000000      -0.00000000       0.00000000
H       -0.80871375      -1.21234604      -4.10162075      -0.00000000       0.00000000       0.00000000
H       -2.40750375      -0.45542304      -3.81985975       0.00000000       0.00000000      -0.00000000
C        1.61391325      -2.09582504       2.08951525      -0.00000000      -0.00000000       0.00000000
H        0.72394025      -4.04434104      -2.60319775       0.00000000       0.00000000       0.00000000
H       -1.96519775      -3.91948504      -2.19873675      -0.00000000      -0.00000000      -0.00000000
H       -5.20119875      -0.56660204       0.21690925      -0.00000000       0.00000000       0.00000000
H       -4.86959375       1.67933696       1.72438225      -0.00000000       0.00000000       0.00000000
H       -0.74484875       4.50311296       3.31383225       0.00000000       0.00000000       0.00000000
H        1.94992225       4.37446696       2.92098325       0.00000000       0.00000000       0.00000000
H        5.16011925       1.19634796       0.24086925      -0.00000000      -0.00000000       0.00000000
H        4.82217725      -1.03818004      -1.28220875      -0.00000000       0.00000000       0.00000000
H        1.66588225      -2.80794804       2.92630325       0.00000000       0.00000000       0.00000000
H        1.76166325      -2.65367304       1.14928925       0.00000000       0.00000000       0.00000000
H        2.41117225      -1.34310604       2.16611825       0.00000000       0.00000000       0.00000000
48
Properties=species:S:1:pos:R:3:forces:R:3 charge=T mult=T 0=T 4=T energy=0.002599543396645019 pbc="F F F"
S       -0.01425652      -1.29380024       2.08709587       0.11273983      -0.10035329      -0.00051037
O       -0.17220900       1.28853322      -1.21712169      -0.00072388       0.00140241       0.00031091
Fe      -0.02775462       0.33983486       0.17315017      -0.01360619       0.03701091       0.02521737
N       -0.25542413      -1.43167694      -0.77847816      -0.00414570       0.00622979       0.00454608
N       -2.01373424       0.36495285       0.55707234      -0.00644939       0.00424503       0.00347089
N        0.22546849       1.93168779       1.38452006      -0.00956067      -0.01063412      -0.00609066
N        1.97457133       0.18496949      -0.03392182      -0.01866821      -0.00404924       0.00027582
C        0.72996238      -2.15971842      -1.40325909      -0.00449030       0.04244227      -0.02160923
C        0.15820492      -3.31810212      -2.04806431      -0.00641757       0.00543017       0.00449371
C       -1.18882252      -3.26317733      -1.83621867      -0.00069290      -0.00250994      -0.00129604
C       -1.44195685      -2.07954329      -1.05119011       0.00109868      -0.01803196       0.03116666
C       -2.95815819      -0.50234539       0.07484261      -0.00152813       0.00582258       0.00395612
C       -4.28013127      -0.07916212       0.48047294       0.00099635       0.00968389       0.00620866
C       -4.11744195       1.05667381       1.21968776      -0.00931440      -0.00290746      -0.01016421
C       -2.69726620       1.32417253       1.26029975      -0.01069384       0.00935888      -0.01464319
C       -0.76064843       2.66553844       1.98696957      -0.00690485       0.00032733       0.00108354
C       -0.18674179       3.78675542       2.69766280      -0.00175681      -0.01360761      -0.00907999
C        1.16241239       3.71939973       2.50721313      -0.00225859      -0.00917404      -0.00620727
C        1.40585170       2.55847968       1.67978145      -0.00776796       0.00140979       0.00163051
C        2.91924008       1.05962998       0.44172346      -0.00437036       0.00267697       0.00250450
C        4.23386116       0.66754071      -0.01267442      -0.00266155      -0.00157833      -0.00069944
C        4.06648423      -0.45242351      -0.77429995      -0.00770414      -0.00831226       0.00961113
C        2.65097569      -0.74296295      -0.77839378      -0.00257636      -0.00425375      -0.00223284
C        2.08166891      -1.84464160      -1.40891813       0.00063213      -0.00462246      -0.00258729
H        2.74956824      -2.51133528      -1.95612903       0.00048185      -0.00209435      -0.00083726
C       -2.70081576      -1.64538161      -0.67335321      -0.00935436       0.00313484       0.00289369
H       -3.55578120      -2.24974080      -0.98039342       0.00972422       0.01087519       0.00598357
C       -2.12315045       2.39320149       1.93558379      -0.01895025       0.02187385      -0.01031320
H       -2.79259111       3.07280416       2.46517359      -0.00495746       0.01658413      -0.00518744
C        2.66555053       2.15821644       1.25031529      -0.00584676      -0.00156908      -0.00034609
H        3.51898254       2.76165263       1.56294209      -0.00262038      -0.00145212      -0.00068373
C       -1.31004191      -0.15936950      -3.86425509      -0.04438060      -0.02209041       0.00220293
H       -0.78523283       0.34891636      -2.99619361       0.00016915       0.01167727       0.00802166
H       -1.18635168       0.46231778      -4.76214103      -0.00780998      -0.00027215      -0.00969490
H       -0.80666495      -1.13063932      -4.01256945      -0.01051380       0.01330664      -0.01000394
H       -2.38150346      -0.34273643      -3.68964447       0.06393834       0.01780256      -0.02044687
C        1.59559880      -2.12594034       2.08367985       0.14610550       0.00747409      -0.08826620
H        0.72871425      -4.06073291      -2.60329169      -0.00367654       0.00357646       0.00316508
H       -1.95890137      -3.95085427      -2.18194340       0.00824140       0.00210875       0.00049365
H       -5.20205175      -0.60031889       0.22754923       0.01668273       0.01347712       0.00731254
H       -4.87734132       1.66816512       1.70349549      -0.00216862      -0.00829232      -0.01289193
H       -0.75918517       4.52084446       3.26256494       0.01306168      -0.01733050      -0.01323169
H        1.93679473       4.38691598       2.88131007      -0.00183604      -0.00472800      -0.00312135
H        5.15556401       1.19419389       0.22900356      -0.00192283      -0.00104329      -0.00044499
H        4.82177631      -1.04288018      -1.29055481       0.00102359      -0.00014469      -0.00025455
H        1.65718660      -2.82399489       2.93334716       0.00959744       0.07451096      -0.08567892
H        1.69159936      -2.70849957       1.14741061       0.03930406       0.13517854       0.24568189
H        2.42412200      -1.39541892       2.12014173      -0.18746753      -0.21856904      -0.03370733
48
Properties=species:S:1:pos:R:3:forces:R:3 charge=T mult=T 0=T 4=T energy=0.0039359479118832134 pbc="F F F"
S       -0.00014270      -1.26418649       2.11785781       0.14872375      -0.14192196       0.00277116
O       -0.17513292       1.28588249      -1.27596529      -0.00122477       0.00219890       0.00044958
Fe      -0.02898561       0.31241415       0.18569647      -0.01430517       0.04397905       0.02748747
N       -0.25476746      -1.44951727      -0.77906762      -0.00498051       0.01566461       0.01070878
N       -2.01768736       0.35157758       0.54673427      -0.01316773       0.00642017       0.00637387
N        0.21737359       1.93095727       1.36039123      -0.01322879      -0.01110380      -0.00567529
N        1.97138369       0.17968966      -0.04802090      -0.01734514      -0.00371878       0.00079322
C        0.73041688      -2.17004390      -1.41279227      -0.00903503       0.05716196      -0.04723345
C        0.16182668      -3.33570978      -2.04698177      -0.00855880       0.00591079       0.00519688
C       -1.18400542      -3.28809141      -1.82635106      -0.00271341      -0.00352128      -0.00160591
C       -1.43871734      -2.10457733      -1.04139161      -0.00130913      -0.03650782       0.05076741
C       -2.95901257      -0.52674258       0.07869577      -0.00300033       0.00374516       0.00269337
C       -4.28182225      -0.10459933       0.48230161      -0.00161437       0.00793355       0.00525612
C       -4.12268908       1.04214910       1.20524267      -0.00211586      -0.00513673      -0.00775121
C       -2.70386840       1.31646256       1.23936782      -0.01148307       0.00741163      -0.01399599
C       -0.77126593       2.66991215       1.95281986      -0.00981168       0.00048231       0.00139712
C       -0.19938224       3.79772955       2.65466968      -0.00055997      -0.01092809      -0.00727043
C        1.15051764       3.72812302       2.47051116       0.00052076      -0.00358243      -0.00252968
C        1.39725728       2.55990017       1.65451977      -0.00621215       0.00207463       0.00211199
C        2.91464040       1.05585351       0.42771311      -0.00578928       0.00261069       0.00265933
C        4.22984533       0.66422515      -0.02438689      -0.00225218      -0.00196093      -0.00098839
C        4.06435749      -0.45740983      -0.78430147      -0.00789152      -0.01304364       0.01150628
C        2.64969096      -0.75004430      -0.78942021      -0.00464255      -0.00439596      -0.00207559
C        2.08202117      -1.85342344      -1.41810019      -0.00235379      -0.00307987      -0.00113017
H        2.75063273      -2.51991552      -1.96456722       0.00126909      -0.00253999      -0.00096965
C       -2.69827948      -1.67516565      -0.65980006      -0.01090038       0.00064291       0.00150597
H       -3.55122613      -2.28728761      -0.95693662       0.00626876       0.00879596       0.00482917
C       -2.13361284       2.39672889       1.90091431      -0.01801058       0.02421168      -0.02302052
H       -2.80499674       3.08021343       2.42286993      -0.00304283       0.02114567      -0.01197705
C        2.65825254       2.15771616       1.23116530      -0.00554727      -0.00215104      -0.00076990
H        3.51047970       2.76314946       1.54323170      -0.00318232      -0.00215163      -0.00107133
C       -1.28438814      -0.06430699      -3.75965704      -0.03391878      -0.02214838      -0.00899714
H       -0.63426262       0.43244749      -2.90615874       0.00000000       0.00000000       0.00000000
H       -1.17202017       0.55785154      -4.65831037       0.00117276      -0.00710961      -0.01620103
H       -0.80574907      -1.04604555      -3.92251242      -0.01924305       0.05357430      -0.00768617
H       -2.35414579      -0.23008237      -3.55963211       0.05484050       0.01338039      -0.01733923
C        1.57578696      -2.15425955       2.07747890       0.13212588       0.02079814      -0.06045148
H        0.73326957      -4.07690451      -2.60327138      -0.00466527       0.00298343       0.00303921
H       -1.95212114      -3.98157572      -2.16484740       0.00788424       0.00022474      -0.00070902
H       -5.20206112      -0.63306272       0.23872808       0.01279099       0.00716675       0.00331395
H       -4.88459045       1.65648558       1.68234299      -0.00080029      -0.00600948      -0.01089423
H       -0.77377494       4.53725257       3.21047178       0.01358411      -0.01385575      -0.01066904
H        1.92346019       4.39901108       2.84146538      -0.00008420      -0.00112771      -0.00077591
H        5.15090238       1.19210867       0.21721646      -0.00203940      -0.00155284      -0.00076689
H        4.82123231      -1.04752204      -1.29879965      -0.00033912       0.00086671       0.00063089
H        1.64785322      -2.83886907       2.93703722      -0.02226093       0.06166167      -0.05151670
H        1.61847919      -2.75620424       1.15084579       0.05545060       0.09769005       0.20142572
H        2.42902803      -1.45229403       2.07098322      -0.16700180      -0.17118811      -0.03084607
48
Properties=species:S:1:pos:R:3:forces:R:3 charge=T mult=T 0=T 4=T energy=0.004419431829199422 pbc="F F F"
S        0.01945584      -1.23579549       2.14782720       0.10860457      -0.12816961      -0.00740048
O       -0.17822541       1.28319463      -1.33464374      -0.00098497       0.00139855       0.00024452
Fe      -0.02977790       0.28605603       0.19911374      -0.01346127       0.02825185       0.01494752
N       -0.25425619      -1.46683068      -0.78010224      -0.00253946      -0.02575625       0.05212128
N       -2.02161866       0.33806080       0.53629952      -0.01397417       0.00171477       0.00351041
N        0.20925010       1.93008645       1.33611704      -0.01183873       0.00135040       0.00323862
N        1.96788445       0.17438710      -0.06200808      -0.00882171      -0.00030165       0.00195911
C        0.73113078      -2.18115351      -1.42063366      -0.01275381       0.06015797      -0.06757566
C        0.16542101      -3.35315862      -2.04581292      -0.00691897       0.00536547       0.00458262
C       -1.17905519      -3.31276518      -1.81637791      -0.00161229      -0.00226446      -0.00097458
C       -1.43541668      -2.12838920      -1.03290707      -0.00342594      -0.04572763       0.05596920
C       -2.95961213      -0.55073318       0.08278370      -0.00368658       0.00020735       0.00049439
C       -4.28325682      -0.12961779       0.48438110      -0.00030135       0.00317137       0.00197396
C       -4.12781153       1.02738842       1.19067848       0.00521403      -0.00451656      -0.00342802
C       -2.71027522       1.30834816       1.21832912      -0.00360307       0.00042806      -0.00424359
C       -0.78182042       2.67389352       1.91840491      -0.01138340       0.00065442       0.00160309
C       -0.21211395       3.80820895       2.61137146       0.00109505      -0.00486866      -0.00333007
C        1.13854003       3.73664298       2.43370276       0.00209152       0.00249447       0.00144058
C        1.38855373       2.56133934       1.62928780      -0.00278813       0.00313190       0.00259593
C        2.90991164       1.05207904       0.41373088      -0.00691334       0.00095535       0.00166122
C        4.22582324       0.66091804      -0.03608368      -0.00245435      -0.00089997      -0.00020742
C        4.06225129      -0.46231100      -0.79436505      -0.00762978      -0.01347685       0.01192624
C        2.64833675      -0.75707095      -0.80040072      -0.00472078      -0.00335668      -0.00142770
C        2.08219212      -1.86210324      -1.42719884      -0.00344736      -0.00156405      -0.00016537
H        2.75156881      -2.52840051      -1.97295898       0.00056900      -0.00106700      -0.00010661
C       -2.69550001      -1.70448690      -0.64599243      -0.00677113      -0.00051610       0.00043960
H       -3.54624097      -2.32421363      -0.93315020      -0.00006352       0.00446770       0.00277163
C       -2.14383522       2.39908130       1.86593913      -0.01379840       0.02647197      -0.02884018
H       -2.81725577       3.08639037       2.38002611      -0.00173973       0.02271845      -0.01656047
C        2.65086177       2.15718312       1.21201922      -0.00375609      -0.00324430      -0.00168883
H        3.50193455       2.76460626       1.52352056      -0.00199363      -0.00242854      -0.00136608
C       -1.25898768       0.02924238      -3.65469207      -0.02014985       0.01789645      -0.01513612
H       -0.48309932       0.51502825      -2.81610508      -0.00465418       0.04030678      -0.04140795
H       -1.15778702       0.65282862      -4.55370803       0.00892793       0.00332060      -0.02669783
H       -0.80550019      -0.96021117      -3.83202840      -0.00481277       0.02203654      -0.00985923
H       -2.32592381      -0.11748951      -3.42975890       0.01979412       0.00272221      -0.00417303
C        1.55529152      -2.18168758       2.07080235       0.04826782       0.02827839       0.00754975
H        0.73772369      -4.09294285      -2.60318575      -0.00470773       0.00317499       0.00284554
H       -1.94508335      -4.01192276      -2.14757957       0.00190118      -0.00431663      -0.00279535
H       -5.20163454      -0.66528009       0.25019702       0.00507606       0.00084465      -0.00000264
H       -4.89160959       1.64454990       1.66105361       0.00063923      -0.00501783      -0.00547435
H       -0.78851671       4.55292376       3.15792735       0.00847553      -0.00359963      -0.00320282
H        1.91000142       4.41088985       2.80151858       0.00224720       0.00264339       0.00153874
H        5.14618004       1.19006996       0.20548104      -0.00240909      -0.00209489      -0.00106913
H        4.82062566      -1.05213124      -1.30699976      -0.00385997      -0.00009790       0.00265591
H        1.63835572      -2.85319890       2.93886091      -0.02128655       0.02871011      -0.00060047
H        1.54357631      -2.79972603       1.15720048       0.03095163      -0.01576605       0.07352109
H        2.42934382      -1.51177722       2.02011902      -0.03059278      -0.04382293      -0.00185698
48
Properties=species:S:1:pos:R:3:forces:R:3 charge=T mult=T 0=T 4=T energy=0.00535947382972244 pbc="F F F"
S        0.04096698      -1.20744527       2.17737580       0.00623180      -0.07517608       0.00858971
O       -0.18177288       1.28056330      -1.39297438       0.00000000       0.00000000       0.00000000
Fe      -0.03040668       0.25996927       0.21279670      -0.01169314       0.00738939       0.00226086
N       -0.25380327      -1.48326485      -0.78194273      -0.00254281      -0.04085083       0.06052341
N       -2.02542027       0.32452983       0.52582876      -0.00839949       0.00067178       0.00182678
N        0.20117118       1.92912489       1.31175990      -0.00971980       0.00601219       0.00575443
N        1.96427272       0.16909742      -0.07596578      -0.00561371       0.00173382       0.00246186
C        0.73201377      -2.19292344      -1.42726044      -0.01671065       0.06076656      -0.07839675
C        0.16904277      -3.37050436      -2.04459748      -0.00196692       0.00444740       0.00311032
C       -1.17404652      -3.33730612      -1.80635183      -0.00342429      -0.00212736      -0.00065856
C       -1.43206215      -2.15152863      -1.02510588      -0.00324520      -0.03952833       0.04358207
C       -2.96009324      -0.57458790       0.08693820      -0.00341972      -0.00245262      -0.00119254
C       -4.28458586      -0.15450840       0.48652800      -0.00228228       0.00009417       0.00026771
C       -4.13290545       1.01260069       1.17609706       0.00190601      -0.00293502      -0.00210171
C       -2.71664042       1.30011088       1.19724609      -0.00028568       0.00117728       0.00078947
C       -0.79229477       2.67766734       1.88385863      -0.01096242       0.00557142       0.00454575
C       -0.22489726       3.81846149       2.56795112       0.00095452       0.00161170       0.00089667
C        1.12650753       3.74503464       2.39683547       0.00268434       0.00677853       0.00415691
C        1.37982235       2.56274585       1.60404554      -0.00007567       0.00677414       0.00467054
C        2.90516754       1.04833157       0.39977665      -0.00632637       0.00060255       0.00134310
C        4.22180383       0.65762379      -0.04776887      -0.00318174       0.00004940       0.00053691
C        4.06019350      -0.46711773      -0.80450513      -0.00916343      -0.01246744       0.01243758
C        2.64698415      -0.76405931      -0.81136208      -0.00383776      -0.00282991      -0.00121292
C        2.08229530      -1.87072449      -1.43626207      -0.00340130       0.00020656       0.00077213
H        2.75245420      -2.53683852      -1.98133859      -0.00188238       0.00208952       0.00147593
C       -2.69260390      -1.73361264      -0.63209133      -0.00652160      -0.00340317      -0.00127355
H       -3.54105105      -2.36086256      -0.90923527      -0.00666558      -0.00319838      -0.00107059
C       -2.15388070       2.40080429       1.83102923      -0.00871162       0.02910069      -0.03143951
H       -2.82939195       3.09193769       2.33706754      -0.00228728       0.02574123      -0.01822112
C        2.64345773       2.15666615       1.19289852      -0.00340738      -0.00370405      -0.00200340
H        3.49337198       2.76606165       1.50382677      -0.00069571      -0.00254973      -0.00156380
C       -1.23377850       0.12215076      -3.54954721       0.00062341       0.01987510      -0.01568363
H       -0.33140509       0.59671180      -2.72552284      -0.00203618       0.05457600      -0.05099713
H       -1.14362827       0.74758932      -4.44876069       0.00591801       0.00458216      -0.02152548
H       -0.80560493      -0.87428834      -3.74151470      -0.00310803       0.01491271      -0.00650293
H       -2.29718740      -0.00501771      -3.30000621       0.00000000       0.00000000       0.00000000
C        1.53458003      -2.20882812       2.06359817       0.03054030      -0.02047554      -0.00232644
H        0.74215553      -4.10889262      -2.60306096      -0.00478805       0.00292331       0.00256194
H       -1.93794250      -4.04207505      -2.13022988      -0.00231661      -0.00628435      -0.00339203
H       -5.20105748      -0.69726791       0.26178771       0.00095181      -0.00213120      -0.00138477
H       -4.89858636       1.63253628       1.63972309       0.00018007      -0.00431331      -0.00279044
H       -0.80333932       4.56824676       3.10519175       0.00526142       0.00494735       0.00264648
H        1.89647353       4.42263591       2.76151677       0.00391346       0.00520316       0.00302077
H        5.14143008       1.18806138       0.19377538      -0.00265236      -0.00223574      -0.00112201
H        4.82001365      -1.05672114      -1.31520442      -0.00768995      -0.00098560       0.00492912
H        1.62900742      -2.86743983       2.93979568      -0.01127904       0.01642413       0.04996409
H        1.46784062      -2.84102995       1.16473555       0.04225007      -0.04607932       0.02775997
H        2.42735983      -1.57241806       1.96862465       0.06887893      -0.01053428      -0.00602523
48
Properties=species:S:1:pos:R:3:forces:R:3 charge=T mult=T 0=T 4=T energy=0.005294640604498066 pbc="F F F"
S        0.06405972      -1.17902074       2.20638911      -0.04485744      -0.04308992       0.02253239
O       -0.18623755       1.27806041      -1.45059995       0.00000000       0.00000000       0.00000000
Fe      -0.03096653       0.23408430       0.22665705      -0.00689001      -0.00534490      -0.00351653
N       -0.25337899      -1.49892775      -0.78443234      -0.00126459       0.00030650       0.01553288
N       -2.02908058       0.31101430       0.51534991      -0.00370387       0.00078157       0.00071595
N        0.19316654       1.92802980       1.28731431      -0.00795028       0.00817488       0.00602784
N        1.96062907       0.16382320      -0.08991295      -0.00669869       0.00233072       0.00250455
C        0.73310108      -2.20548462      -1.43241533      -0.02058532       0.05904147      -0.08400317
C        0.17269707      -3.38772134      -2.04332449      -0.00069532       0.00253449       0.00155461
C       -1.16898012      -3.36169269      -1.79626844      -0.00414792      -0.00383867      -0.00166600
C       -1.42867048      -2.17421857      -1.01770811      -0.00133120      -0.01457366       0.01357218
C       -2.96047012      -0.59832726       0.09114024      -0.00169576      -0.00569302      -0.00332436
C       -4.28582188      -0.17930324       0.48871774      -0.00267120      -0.00352585      -0.00183536
C       -4.13798890       0.99783825       1.16153704      -0.00045191       0.00089187       0.00042083
C       -2.72299133       1.29179411       1.17613021      -0.00052066       0.00393258       0.00228067
C       -0.80264410       2.68122493       1.84919462      -0.00852155       0.00844559       0.00574792
C       -0.23771284       3.82847783       2.52442926       0.00045085       0.00749789       0.00454827
C        1.11442858       3.75327001       2.35990837       0.00259412       0.00991756       0.00604942
C        1.37107550       2.56407178       1.57877122       0.00130302       0.00776873       0.00495870
C        2.90043688       1.04461763       0.38585071      -0.00574128       0.00015370       0.00094443
C        4.21779105       0.65434415      -0.05944955      -0.00376326       0.00050979       0.00091520
C        4.05819756      -0.47181824      -0.81475898      -0.00846906      -0.00921503       0.01322428
C        2.64563506      -0.77100358      -0.82231185      -0.00582932      -0.00231509      -0.00062575
C        2.08235572      -1.87929146      -1.44530900      -0.00383112       0.00176674       0.00167155
H        2.75328432      -2.54523024      -1.98972018      -0.00307973       0.00349332       0.00250864
C       -2.68959825      -1.76254133      -0.61810990      -0.00641814      -0.00645018      -0.00301684
H       -3.53567557      -2.39723735      -0.88521478      -0.00988535      -0.00861629      -0.00374944
C       -2.16369928       2.40188298       1.79633544      -0.00682846       0.03095018      -0.03161088
H       -2.84135463       3.09686017       2.29412950      -0.00420339       0.02984883      -0.01755974
C        2.63606754       2.15617290       1.17380829      -0.00196656      -0.00265336      -0.00145937
H        3.48480351       2.76752679       1.48415799       0.00051086      -0.00250697      -0.00164148
C       -1.20875436       0.21471211      -3.44438533      -0.00009082       0.00302187       0.00143523
H       -0.17871186       0.67746827      -2.63490671       0.00036509       0.01064151      -0.00904791
H       -1.12954002       0.84219409      -4.34365891       0.00320020       0.00153137      -0.01153501
H       -0.80604624      -0.78846927      -3.65101630       0.01170455       0.00096600      -0.00838595
H       -2.26800835       0.10721253      -3.17044304      -0.01354210       0.00829667       0.00445153
C        1.51344762      -2.23569980       2.05592705       0.05665084      -0.01426409       0.02420035
H        0.74656911      -4.12471627      -2.60287892      -0.00442977       0.00136841       0.00146909
H       -1.93071365      -4.07203030      -2.11280895      -0.00445038      -0.00723401      -0.00361041