48
Properties=species:S:1:pos:R:3:forces:R:3 charge=1 spin=4 energy=-76344.45837727965 free_energy=-76344.45837727965 stress="13.28278636932373 0.5497739911079407 -1.163985252380371 0.5497739911079407 9.047284126281738 5.4179253578186035 -1.163985252380371 5.4179253578186035 3.769230604171753" pbc="F F F"
S       -0.01764475      -1.32636804       2.05491925       0.45280927      -0.22672752       0.11966248
O       -0.16925775       1.29104196      -1.15820575      -0.02491526       0.07635467      -0.07099929
Fe      -0.02571675       0.36948096       0.16234625       0.11774445      -0.18616153       0.41916847
N       -0.25634275      -1.41389904      -0.77770675      -0.04959344       0.09481725      -0.19107305
N       -2.00991675       0.37800896       0.56723625       0.04522897       0.11952257      -0.03573642
N        0.23343925       1.93218096       1.40840625      -0.01732896      -0.10627469      -0.14216788
N        1.97718725       0.19017396      -0.01959575      -0.07044628       0.09493220      -0.02386635
C        0.72992225      -2.15043204      -1.39117875      -0.20907331       0.09766078       0.05053706
C        0.15447525      -3.30023804      -2.04899475      -0.43856138      -0.08150046      -0.00997991
C       -1.19339375      -3.23784904      -1.84589875       0.41802165      -0.13186647      -0.10625745
C       -1.44513275      -2.05256904      -1.06311375       0.33645326       0.06741483      -0.04513940
C       -2.95684975      -0.47714204       0.07146925       0.01008301       0.14535460       0.09544782
C       -4.27796175      -0.05288204       0.47916025      -0.04111218       0.32992780       0.23279358
C       -4.11193375       1.07067296       1.23387925      -0.11474790      -0.36543310      -0.20305811
C       -2.69024975       1.33107396       1.28103625       0.02142997      -0.18769109      -0.13667740
C       -0.74997075       2.66048796       2.02065825       0.10696446      -0.00364467       0.00313332
C       -0.17424275       3.77487596       2.74008425       0.39893782       0.02483780      -0.02835387
C        1.17418625       3.71034496       2.54373625      -0.39840892       0.05498386       0.11034796
C        1.41422025       2.55713096       1.70512225      -0.08039182      -0.01244083       0.01763791
C        2.92355325       1.06337396       0.45576225      -0.05999615      -0.21627383      -0.12592387
C        4.23785925       0.67085896      -0.00094375      -0.00651873      -0.30253020      -0.19967283
C        4.06859625      -0.44736004      -0.76435775       0.08735289       0.27081090       0.20408852
C        2.65208425      -0.73579904      -0.76728475       0.04472256       0.14362599       0.12046123
C        2.08097625      -1.83569404      -1.39958975      -0.06509367       0.08478769      -0.04416160
H        2.74825525      -2.50258704      -1.94759975      -0.20262222       0.19438134       0.15380229
C       -2.70292075      -1.61472904      -0.68641475       0.02356376       0.07306143       0.06303829
H       -3.55957475      -2.21105404      -1.00322775       0.25587386       0.17782278       0.09214171
C       -2.11232675       2.38766496       1.96946325       0.07869352       0.00280154      -0.07570785
H       -2.77997675       3.06325196       2.50636225       0.20793135      -0.20424706      -0.17046753
C        2.67264925       2.15861396       1.26943925      -0.11871130       0.01731172      -0.03912954
H        3.52741125       2.76006296       1.58262825      -0.26307112      -0.17748782      -0.10007422
C       -1.33603975      -0.25711504      -3.96828675      -0.00785479      -0.00678628       0.03438365
H       -0.93628075       0.26433896      -3.08723675      -0.13523516      -0.14153425      -0.35426468
H       -1.20081575       0.36574296      -4.86465175      -0.04976946      -0.23370369       0.33661765
H       -0.80871375      -1.21234604      -4.10162075      -0.15075549       0.28461778      -0.00348926
H       -2.40750375      -0.45542304      -3.81985975       0.31602579       0.07006264      -0.08411817
C        1.61391325      -2.09582504       2.08951525       0.07812786      -0.14203180       0.27484667
H        0.72394025      -4.04434104      -2.60319775      -0.20172247       0.24212398       0.17928776
H       -1.96519775      -3.91948504      -2.19873675       0.26350558       0.21752506       0.11207025
H       -5.20119875      -0.56660204       0.21690925       0.30426726       0.18321845       0.09554983
H       -4.86959375       1.67933696       1.72438225       0.25157365      -0.20942949      -0.17474493
H       -0.74484875       4.50311296       3.31383225       0.20364295      -0.24315268      -0.19372618
H        1.94992225       4.37446696       2.92098325      -0.26999611      -0.21834524      -0.12683502
H        5.16011925       1.19634796       0.24086925      -0.30871657      -0.18635605      -0.08841896
H        4.82217725      -1.03818004      -1.28220875      -0.24454187       0.20881721       0.17245096
H        1.66588225      -2.80794804       2.92630325      -0.05914472       0.30030319      -0.31918660
H        1.76166325      -2.65367304       1.14928925      -0.14103608       0.20101395       0.24548504
H        2.41117225      -1.34310604       2.16611825      -0.29358858      -0.19447313      -0.03972204
48
Properties=species:S:1:pos:R:3:forces:R:3 charge=1 spin=4 energy=-76344.46360365332 free_energy=-76344.46360365332 stress="11.086188316345215 0.7232741713523865 -0.5280773639678955 0.7232741713523865 7.65405797958374 5.343982696533203 -0.5280773639678955 5.343982696533203 2.849886655807495" pbc="F F F"
S       -0.00745266      -1.30699547       2.07459069       0.35449389      -0.21396953       0.13594776
O       -0.16211655       1.27998119      -1.16632828      -0.03343033       0.15652476      -0.12210958
Fe      -0.02636252       0.36090713       0.15427497       0.12494552      -0.21356981       0.51690996
N       -0.25943168      -1.42168639      -0.78116356      -0.13686834       0.10892320      -0.15158673
N       -2.01013247       0.37341958       0.56307644       0.05342589       0.17431122       0.00001528
N        0.23220028       1.93056110       1.39127876       0.10047319      -0.09327031      -0.13485043
N        1.97402828       0.18283284      -0.02827759      -0.07897493       0.00010486      -0.07822445
C        0.73196552      -2.15683189      -1.39640121      -0.01351456       0.04792444      -0.01812424
C        0.15369993      -3.31141877      -2.05113129      -0.21722361      -0.02624420       0.00632110
C       -1.18659013      -3.25394945      -1.84173617       0.24534591      -0.02747397      -0.02759678
C       -1.43555504      -2.06433496      -1.05866819       0.34335160       0.09397576      -0.04525611
C       -2.95749247      -0.49392333       0.07221075      -0.03076539      -0.01790282      -0.00908930
C       -4.27996950      -0.06605854       0.48145617       0.00544116       0.15497994       0.10683551
C       -4.11593490       1.05834812       1.22337942       0.01012092      -0.20991938      -0.11248090
C       -2.69166210       1.32085577       1.26434143       0.03798246      -0.25545812      -0.18025154
C       -0.75854818       2.66390372       1.99967678      -0.08986710       0.00931849       0.03021065
C       -0.17880679       3.78262765       2.71436483       0.20145616      -0.00997644      -0.03065439
C        1.16345462       3.71609329       2.52228417      -0.23702517      -0.01916369       0.03651538
C        1.40268434       2.55598225       1.68825718      -0.20802124      -0.04819881       0.00396454
C        2.92066516       1.06193528       0.44841772      -0.02306749      -0.04016075      -0.00527776
C        4.23649819       0.66622245      -0.00988689      -0.03176090      -0.16093424      -0.09817536
C        4.06846110      -0.44771877      -0.76874902      -0.00349550       0.15687479       0.13553387
C        2.64936727      -0.73521859      -0.77021790      -0.01173669       0.18251173       0.15422609
C        2.07587290      -1.84091273      -1.40713061      -0.17342485       0.01823556      -0.04515797
H        2.74572745      -2.50528972      -1.95211785      -0.18194672       0.16066495       0.12261688
C       -2.70204447      -1.62846600      -0.67533581      -0.02650673       0.17731044       0.12717728
H       -3.55353812      -2.23135503      -0.98883622       0.20988485       0.16123912       0.08678240
C       -2.11272334       2.39091904       1.94867015       0.24347781       0.07410837      -0.03176819
H       -2.78428583       3.06532858       2.47879827       0.18795940      -0.16113147      -0.13812251
C        2.66916275       2.15424671       1.25433370      -0.02360480      -0.11913270      -0.13660710
H        3.51978128       2.75825617       1.56832134      -0.21498497      -0.15457805      -0.09247209
C       -1.33037785      -0.21088487      -3.91883157       1.06808853       0.59737843       1.19612551
H       -0.86867791       0.31625619      -3.02991267      -0.67165977      -0.56336612      -0.99838972
H       -1.18687942       0.41927745      -4.78712577      -0.03473052       0.00502511      -0.20848927
H       -0.80584292      -1.15598699      -4.04342968      -0.04358100      -0.06387332      -0.15883744
H       -2.37912479      -0.38753898      -3.74743950      -0.36801010      -0.03046918       0.04882679
C        1.60277896      -2.11198296       2.08774357       0.01745894      -0.07252225       0.23251785
H        0.72453254      -4.05204611      -2.60274718      -0.15553942       0.16714884       0.12078334
H       -1.95826004      -3.93593148      -2.18742801       0.21267506       0.17179447       0.09013690
H       -5.19851480      -0.58472297       0.22424888       0.21227586       0.14353628       0.07389060
H       -4.87067605       1.66982298       1.71006195       0.19947229      -0.17131242      -0.14009957
H       -0.75116077       4.51062619       3.28144617       0.16251428      -0.17078210      -0.13847893
H        1.93954866       4.37849062       2.89583578      -0.22284804      -0.17444581      -0.10002890
H        5.15485796       1.19265385       0.23277267      -0.22209990      -0.14569850      -0.07423839
H        4.81907832      -1.03921083      -1.28556071      -0.19287844       0.17082474       0.13799958
H        1.65870307      -2.81293972       2.92693295      -0.05705437       0.19780542      -0.19674505
H        1.71757297      -2.67854559       1.15278856      -0.10319827       0.14213689       0.13479772
H        2.41151977      -1.37559797       2.13889237      -0.18302435      -0.10910319      -0.02502380
48
Properties=species:S:1:pos:R:3:forces:R:3 charge=1 spin=4 energy=-76344.50475958765 free_energy=-76344.50475958765 stress="8.775094032287598 0.6194279789924622 -0.5254801511764526 0.6194279789924622 6.169823169708252 4.284198760986328 -0.5254801511764526 4.284198760986328 1.6217551231384277" pbc="F F F"
S        0.00279999      -1.28610338       2.09371592       0.25651014      -0.16599134       0.13217877
O       -0.15632701       1.26956764      -1.18129853      -0.01332670       0.10517622       0.05492470
Fe      -0.02682285       0.34961599       0.15044014       0.10820023      -0.11723106       0.37673637
N       -0.26202060      -1.42799634      -0.78583100      -0.16578823       0.09890265      -0.12535322
N       -2.00903121       0.36809291       0.55815928       0.03922759       0.17733403       0.00664021
N        0.23077184       1.92925256       1.37149820       0.14845419      -0.06701992      -0.08972015
N        1.97001648       0.17485942      -0.03621181      -0.06090806      -0.04774159      -0.10024734
C        0.73426231      -2.16206507      -1.40323230       0.07146973       0.01607580      -0.05238242
C        0.15385550      -3.32113269      -2.05417017      -0.07169484       0.00999421       0.01642737
C       -1.18000996      -3.26823387      -1.83816779       0.13162681       0.03603637       0.01846560
C       -1.42627763      -2.07453415      -1.05574210       0.32126978       0.12187774      -0.02865719
C       -2.95718720      -0.51049899       0.07233866      -0.03576156      -0.08615957      -0.05116288
C       -4.28023818      -0.07991839       0.48279031       0.03046667       0.05703572       0.03612597
C       -4.11752752       1.04646510       1.21306177       0.07257275      -0.12078122      -0.06351125
C       -2.69173874       1.31051185       1.24762342       0.07427727      -0.26391849      -0.18481174
C       -0.76655186       2.66704905       1.97747034      -0.16365521       0.00283517       0.03162924
C       -0.18391780       3.78862952       2.68849734       0.08835545      -0.02406813      -0.03057364
C        1.15373422       3.71992031       2.50029626      -0.14363441      -0.05617614      -0.00512982
C        1.39150143       2.55445554       1.67014293      -0.26278660      -0.08926521      -0.02317222
C        2.91730309       1.05966390       0.44161323      -0.01298487       0.03883882       0.04734729
C        4.23405930       0.66165584      -0.01769703      -0.03875655      -0.07755681      -0.03914322
C        4.06707091      -0.44903056      -0.77301225      -0.05018099       0.09300411       0.09354955
C        2.64614076      -0.73528403      -0.77329678      -0.07265824       0.18431437       0.16448621
C        2.07090386      -1.84556146      -1.41535650      -0.20208737      -0.01339391      -0.03839491
H        2.74314440      -2.50742357      -1.95771520      -0.15981355       0.13008921       0.09352864
C       -2.70024278      -1.64155120      -0.66567655      -0.04537639       0.20589696       0.14071451
H       -3.54693318      -2.25061657      -0.97539383       0.16605757       0.14111960       0.07782234
C       -2.11238193       2.39327519       1.92719374       0.29273984       0.09877804      -0.01119889
H       -2.78739930       3.06651490       2.45124532       0.16424616      -0.12258936      -0.10872936
C        2.66521199       2.14923881       1.23888167       0.02546999      -0.17054082      -0.16712016
H        3.51208578       2.75557911       1.55341005      -0.17075218      -0.13154763      -0.08344758
C       -1.30694015      -0.15817611      -3.84472414       0.99412143       0.53198427       0.80649745
H       -0.83548810       0.35727984      -2.97845318      -0.51635355      -0.38276473      -0.57997394
H       -1.16618004       0.47352796      -4.70663043      -0.01157939       0.09596887      -0.37971923
H       -0.80074815      -1.10283104      -3.98781978       0.08343706      -0.26905656      -0.16911007
H       -2.35093085      -0.32236403      -3.67684217      -0.62440169      -0.05993994       0.13997629
C        1.59068106      -2.12476108       2.08588980      -0.01221324      -0.03193161       0.19468443
H        0.72521869      -4.05932447      -2.60329307      -0.11113279       0.10185719       0.06815571
H       -1.95133653      -3.95125058      -2.17619010       0.16457559       0.12825727       0.06860948
H       -5.19515925      -0.60216993       0.23089842       0.13033883       0.10350975       0.05289815
H       -4.86979541       1.66040443       1.69593413       0.15029514      -0.13414425      -0.10740612
H       -0.75697804       4.51656361       3.25019878       0.12166356      -0.10668098      -0.09063730
H        1.92980707       4.38054860       2.87147749      -0.17690066      -0.13435575      -0.07613936
H        5.14912115       1.18868588       0.22527968      -0.14407788      -0.10661402      -0.05976218
H        4.81545416      -1.04062721      -1.28878163      -0.14641044       0.13436562       0.10532371
H        1.64903520      -2.81528817       2.92837215      -0.04733780       0.11745267      -0.10056812
H        1.67461810      -2.69966044       1.15609578      -0.07722443       0.09591688       0.05464317
H        2.41136700      -1.40495461       2.11301152      -0.09757785      -0.04715233      -0.01529211
48
Properties=species:S:1:pos:R:3:forces:R:3 charge=1 spin=4 energy=-76344.5192867893 free_energy=-76344.5192867893 stress="6.453987121582031 0.27043062448501587 -0.9890376329421997 0.27043062448501587 4.7094268798828125 2.5758111476898193 -0.9890376329421997 2.5758111476898193 0.24462254345417023" pbc="F F F"
S        0.01298727      -1.26374190       2.11159890       0.16095176      -0.09310188       0.11348324
O       -0.15274019       1.26024760      -1.20104290       0.03184596      -0.02096262       0.39056024
Fe      -0.02719593       0.33655744       0.14936685       0.08013469       0.05412114       0.09294436
N       -0.26389063      -1.43319648      -0.79148208      -0.11738144       0.07912705      -0.10949724
N       -2.00698869       0.36184610       0.55267953       0.01696692       0.11026251      -0.02850034
N        0.22892032       1.92810600       1.34997084       0.10405808      -0.04110498      -0.02578954
N        1.96545473       0.16665606      -0.04351335      -0.02945590      -0.03225106      -0.08171649
C        0.73654782      -2.16645261      -1.41113925       0.03523976      -0.01053551      -0.06051634
C        0.15487018      -3.32954796      -2.05769999       0.02702331       0.03815503       0.02477743
C       -1.17379537      -3.28092114      -1.83491570       0.05148942       0.07584080       0.04547479
C       -1.41767340      -2.08369135      -1.05396681       0.22407335       0.13058940      -0.00698264
C       -2.95600518      -0.52667444       0.07219640      -0.02248734      -0.04726837      -0.02521066
C       -4.27900517      -0.09430203       0.48339643       0.04781132       0.00537771      -0.00166265
C       -4.11715571       1.03504705       1.20299472       0.10001071      -0.07229097      -0.03961986
C       -2.69086530       1.30039817       1.23124254       0.10409382      -0.17940412      -0.12808958
C       -0.77380033       2.66975997       1.95432059      -0.10196996      -0.00917012       0.01557610
C       -0.18947596       3.79311331       2.66247504       0.02431512      -0.03139169      -0.03263829
C        1.14492967       3.72217378       2.47784903      -0.08878412      -0.07393321      -0.02956440
C        1.38105219       2.55270004       1.65113718      -0.20123146      -0.11416648      -0.05205011
C        2.91343858       1.05652436       0.43501676      -0.01326133       0.01162413       0.02683029
C        4.23061194       0.65719078      -0.02457284      -0.04293020      -0.02772636      -0.00262031
C        4.06460380      -0.45120226      -0.77723991      -0.07551921       0.05501967       0.06563804
C        2.64264620      -0.73622781      -0.77674320      -0.11465100       0.12077102       0.12764883
C        2.06645151      -1.84965908      -1.42395808      -0.13789441       0.01063997      -0.01437745
H        2.74068385      -2.50916132      -1.96418043      -0.13645567       0.10269682       0.06729441
C       -2.69754176      -1.65432641      -0.65730964      -0.00564415       0.15015726       0.09717507
H       -3.53995305      -2.26905939      -0.96270654       0.12584713       0.11761737       0.06572315
C       -2.11179376       2.39465822       1.90520074       0.21374103       0.05539325      -0.02532057
H       -2.78963917       3.06699811       2.42377843       0.13711028      -0.08909149      -0.08208203
C        2.66067958       2.14399673       1.22340554       0.00368751      -0.12680705      -0.12233882
H        3.50433907       2.75230641       1.53811622      -0.13098972      -0.10782935      -0.07297896
C       -1.27288185      -0.10255721      -3.75685860       0.09477774      -0.05362354      -0.62913191
H       -0.82375122       0.39098992      -2.92636134       0.15726221       0.22215189       0.57773966
H       -1.14016644       0.52896731      -4.62452831       0.00932086       0.07397432      -0.29816198
H       -0.79384931      -1.05321584      -3.93449724       0.18378891      -0.31868520      -0.08673929
H       -2.32376613      -0.25930734      -3.60668483      -0.55275494      -0.04418271       0.17217618
C        1.57777549      -2.13480079       2.08378350      -0.01888667      -0.01426463       0.16040221
H        0.72603178      -4.06625219      -2.60458153      -0.06987584       0.04815250       0.02332776
H       -1.94451676      -3.96565654      -2.16502565       0.12078030       0.08866952       0.04852020
H       -5.19129119      -0.61906636       0.23698654       0.06087976       0.06470315       0.03335792
H       -4.86744906       1.65117314       1.68202392       0.10551352      -0.09885924      -0.07763252
H       -0.76246847       4.52124741       3.21984083       0.08254903      -0.05279083      -0.05104215
H        1.92062941       4.38114466       2.84776474      -0.13350332      -0.09861869      -0.05563556
H        5.14297432       1.18459379       0.21828413      -0.07746810      -0.07037547      -0.04531062
H        4.81148920      -1.04238934      -1.29196433      -0.10558715       0.10044752       0.07496641
H        1.63728839      -2.81542505       2.93045060      -0.03354667       0.05776625      -0.02980530
H        1.63251340      -2.71768820       1.15908957      -0.05906378       0.06063061      -0.00003859
H        2.41074132      -1.43187337       2.08800298      -0.03393037      -0.00545329      -0.00856148
48
Properties=species:S:1:pos:R:3:forces:R:3 charge=1 spin=4 energy=-76344.407113828 free_energy=-76344.407113828 stress="4.278906345367432 -0.22396579384803772 -1.6617851257324219 -0.22396579384803772 3.343118190765381 0.6009216904640198 -1.6617851257324219 0.6009216904640198 -1.1994320154190063" pbc="F F F"
S        0.02298329      -1.23996116       2.12754358       0.07366934      -0.01238297       0.08601092
O       -0.15220712       1.25246736      -1.22348778       0.10209528      -0.15443461       0.80609673
Fe      -0.02757993       0.32268144       0.14958017       0.04887220       0.24739571      -0.23684497
N       -0.26482292      -1.43765439      -0.79788983      -0.03402042       0.05958665      -0.09214309
N       -2.00438062       0.35449633       0.54683196      -0.00005802       0.01817604      -0.07697677
N        0.22641209       1.92697208       1.32760293       0.02133058      -0.02567105       0.03346339
N        1.96064593       0.15862515      -0.05029713      -0.00214758       0.01101037      -0.04791744
C        0.73855726      -2.17031556      -1.41958932      -0.05096184      -0.03134574      -0.05544867
C        0.15667216      -3.33683276      -2.06130932       0.08795635       0.05531104       0.02886780
C       -1.16808849      -3.29223009      -1.83170198      -0.00300919       0.09875887       0.05863402
C       -1.41011527      -2.09233132      -1.05297363       0.09869133       0.11812652       0.01106270
C       -2.95401769      -0.54225511       0.07212738      -0.00504837       0.03329277       0.02667653
C       -4.27650780      -0.10904988       0.48350828       0.05625154      -0.01389288      -0.01655690
C       -4.11526359       1.02411710       1.19324666       0.10556837      -0.05169030      -0.03258471
C       -2.68942739       1.29087067       1.21555913       0.11777361      -0.06018578      -0.04886293
C       -0.78011209       2.67187251       1.93050918       0.00915092      -0.01944954      -0.00523837
C       -0.19538142       3.79631077       2.63629117      -0.00482588      -0.03179970      -0.03448786
C        1.13694559       3.72320149       2.45501903      -0.06084786      -0.07897095      -0.04203025
C        1.37171730       2.55086494       1.63159766      -0.08878716      -0.12036945      -0.07192880
C        2.90904317       1.05248119       0.42829626      -0.01486370      -0.05763612      -0.02120789
C        4.22622549       0.65285892      -0.03071296      -0.04248559      -0.00298000       0.01658649
C        4.06123792      -0.45414076      -0.78152447      -0.08623938       0.03535708       0.04849675
C        2.63912508      -0.73828236      -0.78077894      -0.13356240       0.03195689       0.06928103
C        2.06289825      -1.85322443      -1.43262600      -0.03862314       0.05491096       0.01375214
H        2.73852354      -2.51067568      -1.97130217      -0.11247887       0.07851241       0.04479817
C       -2.69396751      -1.66713339      -0.65010779       0.05310353       0.06245250       0.03429978
H       -3.53279084      -2.28690416      -0.95058028       0.08992267       0.09215153       0.05173729
C       -2.11145007       2.39499290       1.88285787       0.08555676      -0.01098510      -0.04991951
H       -2.79132743       3.06696542       2.39647260       0.10806703      -0.06034677      -0.05788020
C        2.65544809       2.13892694       1.20822772      -0.04348381      -0.04477369      -0.05022541
H        3.49655547       2.74871273       1.52266170      -0.09574071      -0.08394293      -0.06134101
C       -1.23535817      -0.04759662      -3.66612907      -1.21951318      -1.03698277      -2.70679760
H       -0.82050712       0.42096642      -2.86714017       1.11141109       1.09117579       2.20937800
H       -1.11028748       0.58606837      -4.54218198       0.02841403       0.00273409      -0.09618992
H       -0.78556632      -1.00747904      -3.88316825       0.23339169      -0.21878856       0.05448055
H       -2.29847489      -0.19777805      -3.53558460      -0.30813441      -0.01051673       0.16167954
C        1.56421816      -2.14274349       2.08125421      -0.01133826      -0.01165836       0.12902389
H        0.72700492      -4.07290532      -2.60635865      -0.03378400       0.00734703      -0.01217622
H       -1.93789029      -3.97936359      -2.15393730       0.08285495       0.05517478       0.03100682
H       -5.18706967      -0.63553568       0.24264189       0.00601407       0.02929581       0.01618675
H       -4.86413424       1.64222097       1.66835644       0.06676840      -0.06690408      -0.05183041
H       -0.76779998       4.52499978       3.19012309       0.04731754      -0.01048947      -0.02024536
H        1.91194763       4.38078257       2.82455387      -0.09425204      -0.06827922      -0.03914551
H        5.13648294       1.18052734       0.21167985      -0.02412164      -0.03869035      -0.03168272
H        4.80736788      -1.04445733      -1.29520165      -0.07147366       0.07022871       0.04789717
H        1.62387242      -2.81378206       2.93299803      -0.01881277       0.01638925       0.01681981
H        1.59097364      -2.73329950       1.16164859      -0.04604499       0.03444747      -0.03325580
H        2.40967010      -1.45705165       2.06339403       0.01047777       0.01937486      -0.00331712
48
Properties=species:S:1:pos:R:3:forces:R:3 charge=1 spin=4 energy=-76344.2386846918 free_energy=-76344.2386846918 stress="2.4300034046173096 -0.6310074329376221 -2.141512393951416 -0.6310074329376221 2.209479808807373 -1.0327788591384888 -2.141512393951416 -1.0327788591384888 -2.3131906986236572" pbc="F F F"
S        0.03266210      -1.21481129       2.14085394       0.00276310       0.05670400       0.05954343
O       -0.15557887       1.24667318      -1.24655955       0.20411311      -0.21444242       1.22768307
Fe      -0.02807303       0.30893791       0.14960516       0.02098530       0.40294564      -0.50878531
N       -0.26459858      -1.44173768      -0.80482728       0.03501100       0.04449543      -0.06508786
N       -2.00158271       0.34586075       0.54081134      -0.00688314      -0.05112398      -0.10964603
N        0.22301354       1.92570144       1.30530073      -0.04274453      -0.02050312       0.07213967
N        1.95589297       0.15116906      -0.05667807       0.01208012       0.04260590      -0.02606086
C        0.74002584      -2.17397497      -1.42804974      -0.11400403      -0.03785952      -0.04539417
C        0.15918967      -3.34315525      -2.06458674       0.10679186       0.05376177       0.02567338
C       -1.16303144      -3.30237957      -1.82824874      -0.02902719       0.10106526       0.05629628
C       -1.40397614      -2.10097882      -1.05239387       0.00345663       0.09804381       0.02295076
C       -2.95129600      -0.55704643       0.07247502       0.01089285       0.09461929       0.06697102
C       -4.27298346      -0.12400238       0.48335960       0.05138391      -0.00811026      -0.01395708
C       -4.11229529       1.01369837       1.18388599       0.09251209      -0.04981994      -0.03538832
C       -2.68781066       1.28228531       1.20093351       0.11832421       0.03047870       0.01128733
C       -0.78530568       2.67322269       1.90631775       0.09351756      -0.02534194      -0.02094854
C       -0.20153434       3.79845363       2.60993898      -0.00814797      -0.02371117      -0.03366513
C        1.12968660       3.72335120       2.43188278      -0.05022297      -0.07227217      -0.04394099
C        1.36387743       2.54909945       1.61188206       0.00079568      -0.11371398      -0.07792604
C        2.90408841       1.04749891       0.42111970      -0.01620131      -0.10740352      -0.05362485
C        4.22096933       0.64869191      -0.03631605      -0.03334194       0.00074773       0.01962878
C        4.05715139      -0.45775289      -0.78595839      -0.08145588       0.02918700       0.03967083
C        2.63581888      -0.74168011      -0.78562582      -0.13329577      -0.03036445       0.02357022
C        2.06062645      -1.85627636      -1.44105089       0.03326760       0.07806627       0.02937357
H        2.73684123      -2.51213935      -1.97886904      -0.08823603       0.05779505       0.02650605
C       -2.68954611      -1.68031392      -0.64394369       0.09038293      -0.01011136      -0.01443273
H       -3.52563967      -2.30437160      -0.93882101       0.05888512       0.06603510       0.03671372
C       -2.11184208       2.39420404       1.86033184      -0.02095230      -0.05685692      -0.06325319