48
Properties=species:S:1:pos:R:3:forces:R:3 charge=0 spin=4 energy=-76350.82996765555 free_energy=-76350.82996765555 stress="13.184107780456543 0.6823620200157166 -1.0763273239135742 0.6823620200157166 8.23816967010498 5.741613388061523 -1.0763273239135742 5.741613388061523 3.430314540863037" pbc="F F F"
S       -0.01764475      -1.32636804       2.05491925       0.42921507      -0.30972439       0.17128952
O       -0.16925775       1.29104196      -1.15820575      -0.02905465       0.27948761      -0.39270696
Fe      -0.02571675       0.36948096       0.16234625       0.01288363      -0.22499704       0.42339867
N       -0.25634275      -1.41389904      -0.77770675      -0.10442502      -0.12514251      -0.27032053
N       -2.00991675       0.37800896       0.56723625      -0.26235366       0.08626153       0.01315413
N        0.23343925       1.93218096       1.40840625       0.01687881       0.18461864       0.06725720
N        1.97718725       0.19017396      -0.01959575       0.24251974       0.03790578      -0.02757262
C        0.72992225      -2.15043204      -1.39117875      -0.08915883       0.08649851       0.06834339
C        0.15447525      -3.30023804      -2.04899475      -0.37928733      -0.03671983       0.02029248
C       -1.19339375      -3.23784904      -1.84589875       0.38261816      -0.07804656      -0.05614650
C       -1.44513275      -2.05256904      -1.06311375       0.23868090       0.09659909       0.02354195
C       -2.95684975      -0.47714204       0.07146925       0.02909754       0.08401190       0.07892158
C       -4.27796175      -0.05288204       0.47916025       0.03526687       0.26051947       0.17350736
C       -4.11193375       1.07067296       1.23387925      -0.00015712      -0.27772841      -0.16327547
C       -2.69024975       1.33107396       1.28103625       0.01210497      -0.17000659      -0.09019610
C       -0.74997075       2.66048796       2.02065825      -0.00808651      -0.05905138      -0.02957740
C       -0.17424275       3.77487596       2.74008425       0.37964505      -0.01198317      -0.05025962
C        1.17418625       3.71034496       2.54373625      -0.37365115       0.01207885       0.07179944
C        1.41422025       2.55713096       1.70512225      -0.04507046      -0.06408615      -0.01682627
C        2.92355325       1.06337396       0.45576225      -0.08105258      -0.16766319      -0.07434713
C        4.23785925       0.67085896      -0.00094375      -0.05576223      -0.26411548      -0.17516237
C        4.06859625      -0.44736004      -0.76435775       0.03734069       0.24709067       0.18999386
C        2.65208425      -0.73579904      -0.76728475      -0.00959813       0.09638830       0.10592065
C        2.08097625      -1.83569404      -1.39958975      -0.09271080       0.07783104       0.00591468
H        2.74825525      -2.50258704      -1.94759975      -0.18761718       0.18810099       0.14160481
C       -2.70292075      -1.61472904      -0.68641475       0.08954240       0.08142212       0.07777311
H       -3.55957475      -2.21105404      -1.00322775       0.24456243       0.17213234       0.08774076
C       -2.11232675       2.38766496       1.96946325       0.18105334      -0.00087119      -0.06953454
H       -2.77997675       3.06325196       2.50636225       0.19784278      -0.19088769      -0.16536787
C        2.67264925       2.15861396       1.26943925      -0.16178043      -0.00038226      -0.02773137
H        3.52741125       2.76006296       1.58262825      -0.25010583      -0.16865700      -0.09780801
C       -1.33603975      -0.25711504      -3.96828675      -0.00539837       0.00795627       0.00751227
H       -0.93628075       0.26433896      -3.08723675      -0.12845346      -0.14324681      -0.30037218
H       -1.20081575       0.36574296      -4.86465175      -0.04603327      -0.21071887       0.29714048
H       -0.80871375      -1.21234604      -4.10162075      -0.15167566       0.27967322       0.01620470
H       -2.40750375      -0.45542304      -3.81985975       0.31663373       0.06397584      -0.06542577
C        1.61391325      -2.09582504       2.08951525       0.09295025      -0.11409542       0.10763996
H        0.72394025      -4.04434104      -2.60319775      -0.18856473       0.23961557       0.16712560
H       -1.96519775      -3.91948504      -2.19873675       0.24815153       0.21812864       0.10578712
H       -5.20119875      -0.56660204       0.21690925       0.30032480       0.17285007       0.08204408
H       -4.86959375       1.67933696       1.72438225       0.24496709      -0.19450188      -0.16484506
H       -0.74484875       4.50311296       3.31383225       0.18776591      -0.23244970      -0.19102590
H        1.94992225       4.37446696       2.92098325      -0.25351444      -0.21283008      -0.12371126
H        5.16011925       1.19634796       0.24086925      -0.29646525      -0.17058145      -0.08521201
H        4.82217725      -1.03818004      -1.28220875      -0.24213615       0.19500060       0.16453396
H        1.66588225      -2.80794804       2.92630325      -0.05495463       0.27425331      -0.29075602
H        1.76166325      -2.65367304       1.14928925      -0.12613657       0.18673229       0.26956299
H        2.41117225      -1.34310604       2.16611825      -0.29684138      -0.20064500      -0.00982410
48
Properties=species:S:1:pos:R:3:forces:R:3 charge=0 spin=4 energy=-76350.8330866474 free_energy=-76350.8330866474 stress="11.347155570983887 0.8076121807098389 -0.4417838454246521 0.8076121807098389 7.6003313064575195 5.05117130279541 -0.4417838454246521 5.05117130279541 3.451082229614258" pbc="F F F"
S       -0.01221731      -1.30270781       2.07726677       0.41099659      -0.23672134       0.08721316
O       -0.16322239       1.28992543      -1.17679086       0.01034835      -0.02051869       0.07628325
Fe      -0.02655078       0.35212825       0.16750157      -0.01039680       0.06565071       0.03665673
N       -0.25661887      -1.42324018      -0.78368726      -0.07813672      -0.05951578      -0.20878738
N       -2.01333904       0.37102305       0.56095025      -0.16460197       0.03671263       0.00181269
N        0.22816429       1.93471878       1.39188597       0.01232291       0.07698524       0.03128395
N        1.97710684       0.18621061      -0.02853056       0.14026305       0.00569827       0.01542489
C        0.72923359      -2.15596292      -1.39810178      -0.06393781       0.05932166       0.07010536
C        0.15457792      -3.31075791      -2.05024032      -0.22588924       0.00560685       0.02399580
C       -1.18830907      -3.25379174      -1.84087044       0.23992755      -0.02933270      -0.00841563
C       -1.44088439      -2.06738876      -1.05816858       0.17734298       0.10284152      -0.00379706
C       -2.95731145      -0.49203461       0.07363334       0.05560464       0.08433706       0.07063935
C       -4.27826017      -0.06765057       0.48098083       0.04821102       0.18309712       0.11461793
C       -4.11473464       1.06006932       1.22461576       0.03398341      -0.20263430      -0.11636521
C       -2.69424261       1.32580469       1.26793648       0.04145652      -0.12451336      -0.06822888
C       -0.75567384       2.66422773       1.99829110       0.00622312      -0.05827541      -0.03289858
C       -0.17963869       3.78139462       2.71385602       0.25953308      -0.03199232      -0.05264566
C        1.16561059       3.71517807       2.52170844      -0.25988555      -0.01672307       0.03597437
C        1.40880487       2.55840350       1.68842535      -0.06350853      -0.06056599      -0.01735699
C        2.92074239       1.05889384       0.44637986      -0.09766839      -0.11549079      -0.03910113
C        4.23483424       0.66654925      -0.00808488      -0.06580678      -0.18023089      -0.12006269
C        4.06741302      -0.45020384      -0.76901255      -0.00227323       0.15954030       0.12832420
C        2.65176069      -0.73994347      -0.77375147      -0.02477277       0.06056294       0.08497992
C        2.07943192      -1.83955887      -1.40632772      -0.07124738       0.09416286       0.01055270
H        2.74733958      -2.50659682      -1.95232346      -0.17806233       0.17507100       0.12946957
C       -2.69952153      -1.63211384      -0.67768260       0.08655318       0.07681698       0.07526917
H       -3.55424405      -2.23330268      -0.98869424       0.22991264       0.16011809       0.08351520
C       -2.11690819       2.38949032       1.94740524       0.14991976      -0.03574238      -0.07641072
H       -2.78514973       3.06616472       2.48020812       0.17859629      -0.16953556      -0.14902425
C        2.66630784       2.15722593       1.25703720      -0.14604625      -0.03259726      -0.04619970
H        3.52033591       2.75787948       1.56997476      -0.22195603      -0.14487597      -0.08490767
C       -1.32743721      -0.20931342      -3.91702140       0.86356497       0.50745523       1.06845629
H       -0.87056830       0.31437337      -3.03208444      -0.58152586      -0.47611365      -0.79712987
H       -1.18539087       0.41791691      -4.78610332      -0.02554518       0.06567957      -0.27602762
H       -0.80643524      -1.15459190      -4.04396480      -0.01131958      -0.10855699      -0.13079299
H       -2.37867074      -0.38843304      -3.74639691      -0.28133047      -0.01477883       0.05222506
C        1.60358918      -2.11095597       2.08417249       0.02847562      -0.02380083       0.12641869
H        0.72530820      -4.05204401      -2.60253611      -0.15539922       0.18462455       0.12374914
H       -1.95935191      -3.93639789      -2.18744527       0.20601597       0.16997211       0.08341254
H       -5.19790357      -0.58576196       0.22369102       0.23189166       0.14290516       0.06784275
H       -4.87058692       1.67061924       1.71070186       0.18513587      -0.15891217      -0.13211173
H       -0.75168533       4.50968179       3.28184394       0.15616333      -0.17577276      -0.14680116
H        1.94047020       4.37788592       2.89653533      -0.20198295      -0.15734336      -0.09054662
H        5.15377445       1.19345884       0.23336093      -0.22819117      -0.13967316      -0.07015413
H        4.81942405      -1.03981971      -1.28614027      -0.18659125       0.15777397       0.13366072
H        1.65682589      -2.81263270       2.92764267      -0.05285255       0.24215433      -0.25244522
H        1.71790334      -2.67989444       1.14990187      -0.09159884       0.14233258       0.18866234
H        2.41589784      -1.37412460       2.13805210      -0.26191625      -0.18520302      -0.00033476
48
Properties=species:S:1:pos:R:3:forces:R:3 charge=0 spin=4 energy=-76350.8407580036 free_energy=-76350.8407580036 stress="9.357436180114746 0.6544764637947083 -0.42179009318351746 0.6544764637947083 6.5726094245910645 3.7083752155303955 -0.42179009318351746 3.7083752155303955 2.9468202590942383" pbc="F F F"
S       -0.00302428      -1.27314881       2.09665104       0.33501238      -0.16756864      -0.00118710
O       -0.15837231       1.28729620      -1.20388459       0.05617354      -0.28835714       0.56321824
Fe      -0.02688161       0.33271564       0.17582705      -0.02961193       0.36173326      -0.38493186
N       -0.25645587      -1.43105862      -0.79135045      -0.05593961      -0.01650979      -0.12290785
N       -2.01545143       0.36359346       0.55459355      -0.08464938       0.00070041      -0.00223126
N        0.22299338       1.93715782       1.37275268       0.01104883       0.00858607       0.02193647
N        1.97611741       0.18069978      -0.03619659       0.07482443      -0.01850431       0.04510534
C        0.72872953      -2.16123356      -1.40531483      -0.02675901       0.04719928       0.06352012
C        0.15532794      -3.31986517      -2.05227862      -0.11630981       0.03136255       0.03063380
C       -1.18344151      -3.26801222      -1.83642407       0.13947132       0.00527335       0.02134943
C       -1.43623635      -2.08050364      -1.05522417       0.11376920       0.10929219      -0.00523697
C       -2.95671411      -0.50628718       0.07573392       0.08891483       0.06959515       0.05412231
C       -4.27694951      -0.08241663       0.48234422       0.05098892       0.12848540       0.07461639
C       -4.11574073       1.04955211       1.21567321       0.04759440      -0.14750274      -0.08325201
C       -2.69727321       1.32003333       1.25498568       0.08252653      -0.08777735      -0.04814167
C       -0.76076600       2.66773143       1.97505786       0.00937337      -0.08005531      -0.04860877
C       -0.18523581       3.78602249       2.68768579       0.17978774      -0.03837093      -0.05070681
C        1.15779855       3.71818341       2.49967329      -0.18392994      -0.02960628       0.01550411
C        1.40307810       2.55947187       1.67118178      -0.06858695      -0.08084085      -0.03521243
C        2.91744562       1.05324050       0.43819997      -0.12719528      -0.07799345      -0.01460575
C        4.23077004       0.66184578      -0.01418527      -0.06482730      -0.12361842      -0.08387749
C        4.06537585      -0.45390169      -0.77335753      -0.02134447       0.10397118       0.08795757
C        2.65140969      -0.74499338      -0.77948894      -0.05813309       0.03375984       0.06668025
C        2.07803466      -1.84327397      -1.41333488      -0.05684742       0.10098498       0.01878668
H        2.74631959      -2.51005543      -1.95744877      -0.16266973       0.15532425       0.11257045
C       -2.69509459      -1.64836537      -0.66950890       0.08418280       0.07290824       0.06877323
H       -3.54759252      -2.25418140      -0.97434043       0.20494930       0.14089110       0.07506732
C       -2.12052584       2.38991086       1.92526509       0.11973196      -0.05231764      -0.07587045
H       -2.78912836       3.06718371       2.45436324       0.15357733      -0.14339286      -0.12824070
C        2.65964045       2.15436005       1.24483643      -0.12885298      -0.04620723      -0.05284932
H        3.51278510       2.75407003       1.55763864      -0.18858013      -0.11956646      -0.07045677
C       -1.30126868      -0.15634250      -3.84373277       0.62940753       0.39783290       0.73324591
H       -0.83675821       0.35500879      -2.98009896      -0.39284489      -0.27963406      -0.36727011
H       -1.16468790       0.46952368      -4.70680369       0.00626715       0.20438585      -0.48615757
H       -0.80244840      -1.10161128      -3.98961785       0.14589411      -0.35185450      -0.13826947
H       -2.34957884      -0.32423893      -3.67257401      -0.44983625      -0.02564821       0.11848078
C        1.59140684      -2.12085507       2.07639652      -0.01806428       0.03346566       0.16524309
H        0.72664864      -4.05911930      -2.60241664      -0.12031416       0.13323502       0.08197508
H       -1.95329988      -3.95209787      -2.17625237       0.15977407       0.12239669       0.05948863
H       -5.19338545      -0.60402164       0.22993270       0.16465703       0.10916740       0.05260142
H       -4.87002866       1.66165617       1.69735580       0.12679677      -0.12166001      -0.10000435
H       -0.75808650       4.51392806       3.25109504       0.12184076      -0.12098009      -0.10477289
H        1.93147599       4.37918636       2.87343761      -0.15040720      -0.10543363      -0.06083202
H        5.14638742       1.19045250       0.22653931      -0.16206324      -0.10965493      -0.05477538
H        4.81641562      -1.04152165      -1.28984371      -0.13430385       0.11965799       0.10199966
H        1.64310802      -2.81172523       2.92660870      -0.04328820       0.19887817      -0.21100326
H        1.67418392      -2.70034878       1.14992286      -0.06629962       0.08382477       0.09397246
H        2.41897419      -1.40364469       2.10992606      -0.19490525      -0.13985693       0.00455367
48
Properties=species:S:1:pos:R:3:forces:R:3 charge=0 spin=4 energy=-76350.79864803725 free_energy=-76350.79864803725 stress="7.347899436950684 0.2541161775588989 -0.8565182685852051 0.2541161775588989 5.234348297119141 2.1348259449005127 -0.8565182685852051 2.1348259449005127 1.9797048568725586" pbc="F F F"
S        0.00887330      -1.23876123       2.11271702       0.24129492      -0.15056834      -0.06523111
O       -0.15544555       1.28359848      -1.23531075       0.10835222      -0.45179087       0.97136372
Fe      -0.02691319       0.31260292       0.18513205      -0.03840082       0.62845480      -0.74817705
N       -0.25582666      -1.43777259      -0.79994007      -0.03930920       0.01375480      -0.01647281
N       -2.01641048       0.35575652       0.54828509      -0.01794054      -0.02653734      -0.00898912
N        0.21790644       1.93924227       1.35181989       0.01095181      -0.02580209       0.01940137
N        1.97431888       0.17390660      -0.04274371       0.03219529      -0.03614014       0.05662436
C        0.72845474      -2.16628799      -1.41264840       0.02811833       0.03424761       0.04743646
C        0.15666020      -3.32783959      -2.05483962      -0.03339044       0.05264922       0.04308197
C       -1.17878952      -3.28078917      -1.83237660       0.06528464       0.03774994       0.04325442
C       -1.43131289      -2.09225988      -1.05362886       0.03549197       0.10558783       0.01025266
C       -2.95511310      -0.52004349       0.07780338       0.11285450       0.04141720       0.03095091
C       -4.27438187      -0.09716806       0.48334914       0.05358611       0.08501679       0.04577727
C       -4.11534657       1.03913622       1.20699717       0.05542784      -0.10374007      -0.05880552
C       -2.69936229       1.31385211       1.24216332       0.12288393      -0.04838222      -0.02089756
C       -0.76540744       2.67080674       1.95117622       0.00060658      -0.10660346      -0.06434857
C       -0.19100301       3.78920239       2.66155287       0.12277800      -0.04286002      -0.04865934
C        1.15056665       3.71977656       2.47760850      -0.13010363      -0.03818997       0.00042424
C        1.39707073       2.56012587       1.65348191      -0.05743681      -0.10782073      -0.05816839
C        2.91354571       1.04664492       0.43098804      -0.15477811      -0.04289835       0.00920978
C        4.22586930       0.65686964      -0.01952153      -0.06201985      -0.08317843      -0.05613956
C        4.06265827      -0.45822431      -0.77748910      -0.03318188       0.06692798       0.06165188
C        2.65085752      -0.75079545      -0.78460374      -0.09536415       0.01247383       0.04834828
C        2.07685661      -1.84692579      -1.42047129      -0.04866600       0.09449156       0.02812834
H        2.74530559      -2.51310844      -1.96292875      -0.14306864       0.13117696       0.09223004
C       -2.68988152      -1.66372231      -0.66176269       0.08453042       0.06324285       0.05808277
H       -3.53996947      -2.27397919      -0.96013544       0.17348124       0.11714279       0.06382145
C       -2.12342363       2.38926845       1.90314889       0.08790991      -0.05844033      -0.06971122
H       -2.79223434       3.06683109       2.42881572       0.12469298      -0.11464614      -0.10515738
C        2.65271579       2.15034249       1.23283246      -0.10645372      -0.04718018      -0.05185195
H        3.50487399       2.74908189       1.54554158      -0.15266161      -0.09418991      -0.05524940
C       -1.26495216      -0.10148878      -3.75842001      -0.33674377      -0.17287555      -0.56526840
H       -0.82202924       0.38961729      -2.92635102       0.26183385       0.28429747       0.70095110
H       -1.14005674       0.52145776      -4.62764776       0.03520410       0.22456427      -0.43358353
H       -0.79706191      -1.05336433      -3.93792372       0.26824111      -0.43192735      -0.05572035
H       -2.32106147      -0.26208479      -3.59758134      -0.32279179       0.00159739       0.13000412
C        1.57769513      -2.12657741       2.06652399      -0.04683859       0.05901689       0.22536130
H        0.72803559      -4.06576310      -2.60274791      -0.08515113       0.08838642       0.04291165
H       -1.94717181      -3.96685164      -2.16514105       0.11251868       0.07895416       0.03585480
H       -5.18800771      -0.62164013       0.23572797       0.10238376       0.07434528       0.03657990
H       -4.86835210       1.65259635       1.68432844       0.07329659      -0.08472898      -0.07102696
H       -0.76423514       4.51650325       3.22132871       0.08682440      -0.07018159      -0.06740485
H        1.92290835       4.37894760       2.85136384      -0.10144293      -0.05912994      -0.03626812
H        5.13824124       1.18744836       0.22025666      -0.10164339      -0.08111828      -0.04041787
H        4.81325059      -1.04331757      -1.29343608      -0.08784717       0.08309309       0.07049575
H        1.62556885      -2.80616167       2.92372285      -0.03270734       0.14829925      -0.17025781
H        1.63057340      -2.71661171       1.14924393      -0.05766639       0.02618194      -0.00246267
H        2.42094292      -1.43207711       2.08173981      -0.11513548      -0.07414025      -0.00192900
48
Properties=species:S:1:pos:R:3:forces:R:3 charge=0 spin=4 energy=-76350.65391842306 free_energy=-76350.65391842306 stress="5.492083549499512 -0.1938285082578659 -1.5126795768737793 -0.1938285082578659 3.9353461265563965 0.5727104544639587 -1.5126795768737793 0.5727104544639587 0.41991716623306274" pbc="F F F"
S        0.02241442      -1.20061525       2.12510969       0.12174945      -0.02580218      -0.09972212
O       -0.15518015       1.27927647      -1.26689316       0.15766369      -0.37614390       1.11572719
Fe      -0.02684947       0.29314987       0.19322595      -0.02741423       0.54035825      -0.70016789
N       -0.25470413      -1.44380032      -0.80869982      -0.02002373       0.05047276       0.01374258
N       -2.01637274       0.34754856       0.54214381       0.03489833      -0.03118679      -0.02655019
N        0.21288336       1.94071630       1.32990109       0.00667080      -0.04334097       0.01069798
N        1.97181115       0.16609618      -0.04832176      -0.01030722      -0.03951141       0.04791220
C        0.72845390      -2.17117024      -1.41993300       0.04888796       0.03715948       0.03370435
C        0.15850962      -3.33496093      -2.05765333       0.02086380       0.06435237       0.05270560
C       -1.17435155      -3.29240127      -1.82854504       0.01745025       0.06371780       0.05428950
C       -1.42623822      -2.10300364      -1.05273098      -0.00641401       0.10398886       0.02528110
C       -2.95256376      -0.53344725       0.07987416       0.12486507       0.01970975       0.01393119
C       -4.27090937      -0.11189270       0.48409431       0.06108567       0.04883109       0.02360019
C       -4.11394670       1.02883655       1.19853320       0.06224470      -0.06755147      -0.03834269
C       -2.70053056       1.30735323       1.22944889       0.14660947      -0.02230761      -0.00505250
C       -0.76975838       2.67326134       1.92686384       0.00155301      -0.12285227      -0.07399038
C       -0.19690916       3.79137718       2.63543657       0.07527867      -0.05185630      -0.05035340
C        1.14373139       3.72037309       2.45549179      -0.08672841      -0.05078162      -0.01519120
C        1.39081353       2.56015529       1.63541612      -0.04614282      -0.12347779      -0.07107680
C        2.90892544       1.03933810       0.42450952      -0.16629636      -0.01964669       0.02467595
C        4.22033463       0.65174194      -0.02437030      -0.06351005      -0.05035014      -0.03247062
C        4.05943385      -0.46294242      -0.78150368      -0.04748426       0.03933486       0.04176102
C        2.64993048      -0.75719634      -0.78920242      -0.11626598       0.00353748       0.03605056
C        2.07596993      -1.85060074      -1.42759701      -0.04330052       0.07923676       0.03088693
H        2.74440787      -2.51590143      -1.96871649      -0.12084053       0.10519437       0.07216783
C       -2.68412393      -1.67842336      -0.65431301       0.08241829       0.05064954       0.04347427
H       -3.53172419      -2.29298506      -0.94604838       0.13886547       0.09129537       0.05293813
C       -2.12584551       2.38790494       1.88116273       0.05369249      -0.05318456      -0.05917697
H       -2.79478937       3.06562906       2.40355363       0.09536099      -0.08605851      -0.08071901
C        2.64560258       2.14549941       1.22102080      -0.07960477      -0.04034281      -0.04852942
H        3.49671774       2.74336235       1.53360527      -0.11652306      -0.07100516      -0.03929321
C       -1.22590567      -0.04803879      -3.67108225      -1.57640469      -1.04307139      -2.38112402
H       -0.81356017       0.42157095      -2.86591134       1.11523020       1.02388453       2.08287263
H       -1.11284732       0.57461360      -4.54953041       0.06053111       0.17962919      -0.23988123
H       -0.79058442      -1.00981122      -3.88822624       0.32977819      -0.35172608       0.08297183
H       -2.29395209      -0.20121467      -3.52060920      -0.07292248       0.03699031       0.10530027
C        1.56278298      -2.12917805       2.05489157      -0.06274414       0.05338003       0.21996178
H        0.72954305      -4.07217156      -2.60343852      -0.05251465       0.04874655       0.01121956
H       -1.94109786      -3.98092585      -2.15409436       0.06903461       0.03890607       0.01572572
H       -5.18213367      -0.63887649       0.24117053       0.04783295       0.04062816       0.02253146
H       -4.86599042       1.64358835       1.67160416       0.02634963      -0.05217611      -0.04480480
H       -0.77031414       4.51805886       3.19228807       0.05437839      -0.02622370      -0.03459637
H        1.91473604       4.37774897       2.82998773      -0.05789573      -0.02008881      -0.01547472
H        5.12961898       1.18456586       0.21436525      -0.04905791      -0.05632070      -0.02667353
H        4.81002757      -1.04523918      -1.29703441      -0.04799019       0.04965755       0.04235712
H        1.60504857      -2.79687807       2.91950661      -0.01886741       0.10461080      -0.11962662
H        1.58714017      -2.73025893       1.14775679      -0.04030879      -0.03387005      -0.07771280
H        2.42234567      -1.45983266       2.05349303      -0.02373175      -0.01539545       0.00404290
48
Properties=species:S:1:pos:R:3:forces:R:3 charge=0 spin=4 energy=-76350.50886074484 free_energy=-76350.50886074484 stress="3.8900489807128906 -0.466254323720932 -1.966347098350525 -0.466254323720932 2.983903169631958 -0.6520866751670837 -1.966347098350525 -0.6520866751670837 -1.0037100315093994" pbc="F F F"
S        0.03653805      -1.15978106       2.13347401      -0.01938154       0.21512774      -0.11967991
O       -0.15831418       1.27477436      -1.29445566       0.22454022      -0.13110185       1.13565326
Fe      -0.02689439       0.27571627       0.19791810      -0.01139072       0.17768671      -0.34607449
N       -0.25306120      -1.44956005      -0.81687344       0.00191777       0.08504120      -0.02086207
N       -2.01549479       0.33900590       0.53628867       0.06977012      -0.01313636      -0.04754684
N        0.20790404       1.94132410       1.30780978       0.00250978      -0.05443517      -0.00129771
N        1.96869415       0.15753363      -0.05308062      -0.04716433      -0.03204338       0.02876924
C        0.72877168      -2.17592433      -1.42699914       0.01390511       0.05387394       0.02528286
C        0.16081108      -3.34150895      -2.06044972       0.04676832       0.06503022       0.05402048
C       -1.17012606      -3.30312721      -1.82474636      -0.00566798       0.07899478       0.05391683
C       -1.42113660      -2.11308110      -1.05187885       0.01050924       0.10265727       0.02802929
C       -2.94912147      -0.54664218       0.08197864       0.12617351       0.01292237       0.00831533
C       -4.26688411      -0.12657839       0.48467844       0.06946291       0.02446993       0.00841168
C       -4.11193567       1.01866798       1.19022686       0.06592225      -0.04149909      -0.02210810
C       -2.70079877       1.30062892       1.21682187       0.14432724      -0.02775288      -0.01470264
C       -0.77397905       2.67490290       1.90233840       0.01936135      -0.12287021      -0.07699922
C       -0.20292314       3.79298970       2.60931620       0.04158032      -0.06029177      -0.05358715
C        1.13710926       3.72038859       2.43330087      -0.05755567      -0.06205895      -0.02605635
C        1.38433732       2.55934991       1.61707478      -0.04969059      -0.12125531      -0.07011919
C        2.90346759       1.03155106       0.41852987      -0.15992750      -0.01750054       0.02390743
C        4.21436868       0.64658380      -0.02900820      -0.06638048      -0.02767481      -0.01670533
C        4.05587612      -0.46782675      -0.78549768      -0.05821791       0.02167431       0.02847705
C        2.64845487      -0.76404273      -0.79339155      -0.11379286       0.00805183       0.02878137
C        2.07544679      -1.85438525      -1.43457211      -0.03436283       0.06574006       0.02668603
H        2.74373675      -2.51857996      -1.97476505      -0.09754059       0.08027623       0.05377142
C       -2.67806341      -1.69270719      -0.64702892       0.07297441       0.04482991       0.03093781
H       -3.52320600      -2.31148801      -0.93204837       0.10424000       0.06580233       0.04311901
C       -2.12803539       2.38616222       1.85941269       0.02699295      -0.03755719      -0.04717441