52
Properties=species:S:1:pos:R:3:forces:R:3 charge=0 spin=1 energy=-37509.09406501559 free_energy=-37509.09406501559 stress="4.514922142028809 -1.4477683305740356 -0.43555063009262085 -1.4477683305740356 0.6317151188850403 -0.3954714238643646 -0.43555063009262085 -0.3954714238643646 4.02268648147583" pbc="F F F"
C        1.46709968       1.66020265      -1.10815858      -0.05003086       0.16113894       0.06858508
O        1.80872140       0.98806483      -2.30197796      -0.02534571      -0.01386590      -0.00697201
C        0.30861480       1.38389352       1.48081543       0.30385357      -0.07418774       0.04611514
C        2.26181295       1.10112749       0.06665341       0.76913434      -0.11566461      -0.13467832
C       -0.00526835       1.65886899      -0.90367355      -0.12909994       0.11157071       0.36921933
C       -1.66660797      -1.36822487       1.15626499       0.48026267      -0.07517796       0.12906930
C       -2.31165943      -1.08265268      -0.09650213      -0.96101600       0.20127457      -0.10437024
C       -0.08478975      -1.40537083      -1.25107360       0.13886988      -0.20097750       0.21146131
H        0.48812068      -1.34508060      -2.16962100      -0.02277532       0.03953311       0.06927307
C       -1.56371014      -1.36882172      -1.39753322      -0.00308167      -0.09621150      -0.01215758
C        0.49193539      -1.70245753      -0.06932924      -0.12618110       0.10103045      -0.35035148
C       -0.33634600      -1.69953132       1.15724439      -0.55221462       0.07621793       0.03342777
O        0.25355513      -1.98809122       2.31695433       0.07544993       0.03031978       0.06413367
O       -3.47938551      -0.68413018      -0.19342223       0.98984188      -0.26746979      -0.09527571
C        1.93196743      -2.06649506       0.00085934       0.27048516      -0.09802239       0.72996694
O        2.45653977      -2.32088524       1.08979651      -0.23960458       0.14318958      -0.67699879
C       -1.95553632      -2.80842436      -1.82470545      -0.11730774       0.00490119       0.01165268
H       -1.45268470      -3.05514300      -2.76245024      -0.05515113       0.03129312       0.07047494
H       -1.68279074      -3.54027631      -1.06104561      -0.03093874       0.06612357      -0.04497650
H       -3.03846803      -2.83402688      -1.97741104       0.11245977      -0.00227859       0.02402708
C        1.84876165       3.15908121      -1.22366429       0.16552764      -0.01280143      -0.00096723
H        1.60728057       3.70387885      -0.30807035       0.02254362      -0.05705528      -0.06880056
H        2.92517798       3.22473402      -1.40803502      -0.10248494       0.00768228       0.02330058
H        1.31070256       3.60359406      -2.06385825       0.05118195      -0.05582836       0.07071500
C       -2.46772624      -1.24246223       2.41845636      -0.09404556       0.02544679       0.14274389
H       -1.82930866      -1.28356594       3.30106551      -0.01726530      -0.02673750      -0.13336156
H       -3.00917268      -0.29294806       2.42859868       0.07173121      -0.09585679      -0.07038254
H       -3.21065515      -2.04396265       2.49410646       0.07055452       0.06873439      -0.04487044
O        3.42844908       0.75542209      -0.15270004      -0.81844211       0.15046458       0.03087384
O       -1.95215858      -0.45439860      -2.39993156       0.09932224      -0.04819245      -0.02397260
H       -2.90665801      -0.33796554      -2.27501170      -0.03298010      -0.01710328       0.08180254
C       -2.01014567       2.04308938       0.46931849      -0.77303511      -0.01096208       1.15601623
O       -2.58219960       2.03239974       1.54962492       0.60716271       0.00536715      -0.98998088
H        1.21088910      -2.16604848       2.13186687      -0.04167693      -0.04328239      -0.06076976
C        2.45395772       0.66136305       2.56087872       0.05497821       0.03143929       0.05662094
H        2.62294470       1.49946479       3.24743047       0.01202855      -0.04323468      -0.03762588
H        1.97080443      -0.14667123       3.12147073       0.04068720       0.06348856      -0.03460815
H        3.42804823       0.29755436       2.23189407      -0.11051902       0.04914578       0.00756377
H       -0.59671094       1.81871557      -1.79742014       0.01629272      -0.04169438       0.07225446
C       -2.74573560       2.50210898      -0.76442572      -0.08470303       0.06264380      -0.15667295
H       -2.72402791       1.74000939      -1.54574216       0.01605921       0.08643975       0.07777087
H       -3.77977020       2.70960617      -0.48967460       0.14540358      -0.05542124       0.01311800
H       -2.28411308       3.40918638      -1.16560845      -0.04404781      -0.05297648       0.01763457
C        2.72796173      -2.19446401      -1.26050354       0.10011004      -0.05375396      -0.12316168
H        2.63752759      -1.29970064      -1.87794214      -0.01169522      -0.09891119       0.07568021
H        3.77302021      -2.36348785      -1.00291062      -0.13022622       0.03818395       0.00145806
H        2.35038537      -3.04296843      -1.83979182       0.04252018       0.05903305       0.03811901
C       -0.56213861       1.67570984       0.32496284       0.25994539      -0.02933411      -0.45367533
C        1.64121524       1.07542819       1.36601470      -0.38910076       0.02987217       0.00002070
H        2.77040876       0.87512467      -2.26347471       0.02732658       0.03438569       0.05278127
O       -0.29022224       1.38418611       2.67456520      -0.00874510       0.05919805      -0.03017670
H        0.35208796       1.17544116       3.36682653       0.02798185      -0.05111638      -0.09107322
52
Properties=species:S:1:pos:R:3:forces:R:3 charge=0 spin=1 energy=-37509.06375235823 free_energy=-37509.06375235823 stress="2.7280378341674805 -1.949513554573059 -0.6830748915672302 -1.949513554573059 -0.28690144419670105 -0.13806912302970886 -0.6830748915672302 -0.13806912302970886 3.0768840312957764" pbc="F F F"
C        1.46606145       1.63966821      -1.10035390      -0.02359374       0.35616696      -0.00572935
O        1.82499824       0.97445184      -2.29528197      -0.09218131       0.01924069       0.06583006
C        0.31910939       1.37382548       1.48602441       0.05872236       0.06926627      -0.04761336
C        2.26899492       1.08688533       0.07353259       0.31628564      -0.00406727      -0.14488719
C       -0.00671378       1.67465890      -0.89812414       0.04720954      -0.68540770       0.45522016
C       -1.66974333      -1.34856485       1.14789189       0.46055192      -0.00393109       0.09892059
C       -2.31285465      -1.07198416      -0.10753873      -0.42265168       0.03502999      -0.13054803
C       -0.07789273      -1.42766881      -1.27009552       0.00166927       0.59412998       0.60351706
H        0.50282675      -1.29485296      -2.17022602       0.03584791      -0.16470763      -0.11820078
C       -1.55500167      -1.35252719      -1.40695371      -0.00824794      -0.32204059      -0.10588196
C        0.49147057      -1.69399512      -0.07790180      -0.19527070      -0.13868612      -0.27216524
C       -0.34503936      -1.68899682       1.15111004      -0.32380635       0.04679983      -0.16539766
O        0.24380855      -1.98155606       2.31021636       0.08336610       0.02794428       0.06014432
O       -3.47758877      -0.69127067      -0.21197079       0.48925713      -0.06615487      -0.11698827
C        1.92584850      -2.07877717      -0.00569491       0.06744010      -0.11968444       0.36754814
O        2.44166019      -2.35923638       1.07397467      -0.05965100       0.11447935      -0.27602094
C       -1.92966366      -2.79447319      -1.83409228      -0.15035699      -0.02566102      -0.01300382
H       -1.41501687      -3.02939897      -2.76775404      -0.07668423      -0.00475835       0.04270768
H       -1.64313605      -3.51724234      -1.06885656      -0.05699345       0.00922868      -0.02672175
H       -3.00806423      -2.83561256      -1.99144324      -0.00150769      -0.03401415       0.00540763
C        1.82386133       3.14333797      -1.21095547       0.19690642       0.01976506      -0.01626238
H        1.55791329       3.67602883      -0.29647282       0.05777637      -0.01079707      -0.04365593
H        2.89614790       3.23382159      -1.38991492       0.00194223       0.03592573       0.00519326
H        1.27517891       3.57253573      -2.05125288       0.07509995      -0.01250556       0.04301842
C       -2.46608932      -1.20087706       2.40864568      -0.05289886       0.01035557       0.08772111
H       -1.82200367      -1.22660221       3.28590078      -0.01765253      -0.04620039      -0.07975152
H       -3.00662275      -0.25195482       2.40649817       0.04137180      -0.07539074      -0.07055870
H       -3.20273011      -2.00357909       2.49028107      -0.01640687       0.02534126       0.02545415
O        3.42797901       0.73888294      -0.15107207      -0.46939048       0.06371272      -0.00433678
O       -1.95043001      -0.44420157      -2.41322376       0.09452128      -0.04773114       0.02891531
H       -2.90985923      -0.34372493      -2.29437829       0.08467547      -0.02570839       0.07265636
C       -1.99967998       2.05383202       0.48158982      -0.77708429       0.17360757       1.32132089
O       -2.54058955       2.12879199       1.57730807       0.57367027      -0.14086848      -1.06415915
H        1.19398733      -2.18653382       2.12064623      -0.01443431      -0.01546573      -0.03797489
C        2.46697009       0.67968978       2.57165838       0.03678291       0.01989646       0.03196182
H        2.62583056       1.52878009       3.24566854       0.01363021      -0.02751477      -0.01333357
H        1.99640709      -0.12691844       3.14341434       0.02372682       0.03433824      -0.02992972
H        3.44485339       0.32575137       2.24655309      -0.07840932       0.03073910      -0.00344371
H       -0.60391582       1.76028172      -1.79195216      -0.05917390       0.19798891      -0.08195239
C       -2.76527159       2.46365146      -0.75084294      -0.06089906       0.14920694      -0.10024009
H       -2.71035808       1.71726609      -1.53820354       0.03104702      -0.02321533      -0.02478442
H       -3.80572891       2.62106599      -0.46919622       0.13379775      -0.04904597       0.02417783
H       -2.35344175       3.39940445      -1.14231490      -0.03508959      -0.06364308       0.01174501
C        2.71372806      -2.21742349      -1.27187165       0.06705613      -0.02121831      -0.08119573
H        2.64658480      -1.31373686      -1.87602387       0.00340746      -0.05049340       0.03272817
H        3.75122107      -2.42070868      -1.01834919      -0.04718610       0.03205939       0.00616044
H        2.30895258      -3.04489755      -1.86010540       0.03332025       0.01914238       0.02414178
C       -0.55812621       1.67137284       0.33123462       0.26554811       0.05498132      -0.36735427
C        1.64901797       1.07110434       1.37257575      -0.21930104       0.01288623       0.03324592
H        2.78839545       0.86494341      -2.24085839      -0.06550035       0.03857143       0.05668332
O       -0.28156151       1.36982745       2.67819413       0.00531125       0.06645949      -0.00077173
H        0.36531618       1.17745596       3.37035744       0.02442990      -0.07835187      -0.06155655
52
Properties=species:S:1:pos:R:3:forces:R:3 charge=0 spin=1 energy=-37508.97050518302 free_energy=-37508.97050518302 stress="1.2694100141525269 -2.2924916744232178 -0.6468789577484131 -2.2924916744232178 -1.1668413877487183 0.05951361730694771 -0.6468789577484131 0.05951361730694771 1.8025468587875366" pbc="F F F"
C        1.46462584       1.61460193      -1.09577622      -0.04849113       0.51110202      -0.02000401
O        1.84201988       0.96051863      -2.29090605      -0.14479472       0.02286181       0.08405929
C        0.32650039       1.36130256       1.48867313      -0.08223103       0.18747519      -0.11086681
C        2.27335410       1.07042312       0.07745728       0.06005301       0.04376084      -0.15589948
C       -0.00960255       1.66665235      -0.89331512       0.24808818      -1.16792428       0.04038854
C       -1.67306993      -1.33373537       1.14054399       0.27308458       0.14104825       0.07970406
C       -2.31254513      -1.05623857      -0.11707153      -0.15882458      -0.05892072      -0.17339015
C       -0.06917188      -1.42329764      -1.27888129      -0.14352448       1.17984056       0.51961577
H        0.51818675      -1.23388731      -2.16583447       0.01175517      -0.31894317      -0.14100924
C       -1.54606436      -1.32957366      -1.41363543       0.03340920      -0.50765103      -0.14779457
C        0.49149744      -1.67549653      -0.08459687      -0.17348689      -0.36376357       0.05254468
C       -0.35473746      -1.67601408       1.14682607       0.07208990      -0.03635437      -0.31821561
O        0.23549572      -1.97251030       2.30569508       0.05104200       0.03531333       0.02612085
O       -3.47591077      -0.68562391      -0.22936861       0.25084460       0.02903622      -0.09649605
C        1.92092995      -2.08203515      -0.01096915      -0.09845888      -0.12313864       0.15003738
O        2.42970198      -2.38399046       1.06171750       0.04674424       0.09127612      -0.01902734
C       -1.89789747      -2.77702418      -1.83729253      -0.19719505      -0.04188383      -0.02362926
H       -1.37142791      -3.00234148      -2.76581373      -0.08784029      -0.03465515       0.01231546
H       -1.59914143      -3.48828396      -1.06803914      -0.07435821      -0.04577591      -0.00786240
H       -2.97262462      -2.83550606      -2.00038295      -0.07023678      -0.06275523      -0.00952764
C        1.79503855       3.12431027      -1.20004867       0.23592971       0.03310831      -0.02904834
H        1.50647383       3.64371548      -0.28633992       0.08485220       0.03514829      -0.01681652
H        2.86383967       3.23988045      -1.37358186       0.06513090       0.06035590      -0.00792027
H        1.23680906       3.53890109      -2.04034840       0.09094608       0.02714640       0.01552455
C       -2.46678477      -1.16344416       2.39912122      -0.02470740      -0.00695956       0.05131275
H       -1.81785055      -1.17486733       3.27183289      -0.02311275      -0.05987727      -0.03729696
H       -3.00515876      -0.21369302       2.38344165       0.02882835      -0.07640237      -0.07055498
H       -3.20048250      -1.96501690       2.48964182      -0.07722914      -0.00503125       0.07522146
O        3.42766586       0.72047873      -0.15078709      -0.25324035       0.01821663      -0.01581783
O       -1.95192221      -0.43427366      -2.42611545       0.09621429      -0.01813441       0.05117251
H       -2.91389625      -0.34508918      -2.30671067       0.15248741      -0.02462871       0.06483950
C       -1.98794190       2.06512594       0.49182171      -0.64067250       0.30071709       1.24064100
O       -2.49502242       2.21964672       1.59384415       0.46175170      -0.23980714      -0.95966429
H        1.17987840      -2.19655655       2.11209208       0.00279116       0.00583913      -0.02762431
C        2.47718237       0.68936110       2.57808884       0.02531267       0.01454341       0.01156917
H        2.62549914       1.54732225       3.24229852       0.01378215      -0.01779597       0.00258306
H        2.01968544      -0.11749957       3.15861782       0.00725240       0.01079379      -0.02348921
H        3.45871069       0.34608728       2.25529377      -0.05203644       0.01720102      -0.01081631
H       -0.61137143       1.69381567      -1.78975762      -0.03128637       0.35164452      -0.05410532
C       -2.77947957       2.42678466      -0.73848214      -0.04498282       0.17096338      -0.04347665
H       -2.68891748       1.69925300      -1.53392375       0.04775867      -0.11556984      -0.10769224
H       -3.82311220       2.52769130      -0.45139134       0.05795112      -0.03162289       0.04248640
H       -2.42286846       3.38843306      -1.11778607      -0.00603423      -0.01684621      -0.00403003
C        2.69812298      -2.23503825      -1.28154543       0.06220910      -0.00479491      -0.06919402
H        2.65402748      -1.32625320      -1.87764748       0.01413379      -0.01238763       0.00278297
H        3.72813250      -2.47107615      -1.03383828       0.01982355       0.02424727       0.01105203
H        2.26609202      -3.04398435      -1.87414478       0.02591309      -0.00786566       0.01487081
C       -0.55166384       1.66389141       0.33185539       0.06285793       0.06270743       0.07463245
C        1.65406434       1.06127763       1.37618027      -0.08846483       0.01379326       0.07276364
H        2.80630960       0.85636362      -2.22142244      -0.11544469       0.03372926       0.05419065
O       -0.27549369       1.35301157       2.68023095       0.02511935       0.06699696      -0.00042273
H        0.37431556       1.16350115       3.37048031       0.00849650      -0.08937662      -0.04873687
52
Properties=species:S:1:pos:R:3:forces:R:3 charge=0 spin=1 energy=-37508.87485904006 free_energy=-37508.87485904006 stress="0.10306566208600998 -2.3894855976104736 -0.43613892793655396 -2.3894855976104736 -2.0167288780212402 0.15957705676555634 -0.43613892793655396 0.15957705676555634 0.3701077103614807" pbc="F F F"
C        1.46270300       1.58687103      -1.09371647      -0.08424362       0.59996766      -0.00017623
O        1.85942364       0.94719460      -2.28856561      -0.17733076       0.00719712       0.06345163
C        0.33091942       1.34650076       1.48962186      -0.13074552       0.27115372      -0.13710302
C        2.27547847       1.05262525       0.07904030      -0.04996517       0.04541268      -0.15375027
C       -0.01321300       1.63521752      -0.88980088       0.43709821      -1.35240054      -0.58951080
C       -1.67523175      -1.31895504       1.13376243      -0.00079088       0.30193210       0.06334650
C       -2.31112662      -1.03681221      -0.12579246      -0.08912465      -0.10001461      -0.20922945
C       -0.05975999      -1.39400939      -1.27923761      -0.27726319       1.50123119       0.16460729
H        0.53300813      -1.16738256      -2.15801178      -0.04492678      -0.42245999      -0.08631466
C       -1.53715855      -1.30234569      -1.41852588       0.08161932      -0.62370777      -0.15080746
C        0.49215526      -1.64966711      -0.08893511      -0.08924779      -0.54489207       0.47585264
C       -0.36336979      -1.66071915       1.14339673       0.50043279      -0.13704912      -0.40549260
O        0.22805821      -1.96266173       2.30249039      -0.00312043       0.04937489      -0.02038683
O       -3.47469567      -0.67232832      -0.24517943       0.19379795       0.05334627      -0.05320073
C        1.91641534      -2.07923166      -0.01509839      -0.21447036      -0.11372503       0.04172300
O        2.41961987      -2.39898032       1.05251711       0.09642917       0.07697807       0.12088853
C       -1.86221640      -2.75724008      -1.83610331      -0.23817520      -0.04998653      -0.02315841
H       -1.32455379      -2.97516466      -2.75903078      -0.08902705      -0.05526176      -0.01570409
H       -1.55302893      -3.45600845      -1.06132307      -0.08306594      -0.08969672       0.00875976
H       -2.93389223      -2.83424377      -2.00551792      -0.09948686      -0.08351119      -0.01905893
C        1.76335302       3.10309477      -1.19060051       0.26683277       0.03610194      -0.03654679
H        1.45452759       3.60921776      -0.27742363       0.10259072       0.07221954       0.00624031
H        2.82916028       3.24343415      -1.35866662       0.09191950       0.07598871      -0.01631676
H        1.19718429       3.50453711      -2.03102466       0.09795463       0.05783598      -0.00837117
C       -2.46828346      -1.12875468       2.38964538      -0.01112886      -0.02567388       0.02961779
H       -1.81581449      -1.12782163       3.25895343      -0.03102103      -0.06676530      -0.00597503
H       -3.00483447      -0.17796036       2.36080061       0.02927669      -0.09080346      -0.06794250
H       -3.20088304      -1.92845719       2.48961929      -0.11373743      -0.02171328       0.10607006
O        3.42743462       0.70131804      -0.15109531      -0.13677299       0.00473977      -0.01379305
O       -1.95603455      -0.42470694      -2.43872104       0.10210028       0.02599067       0.05134859
H       -2.91875852      -0.34351526      -2.31412763       0.17630346      -0.01728091       0.05758660
C       -1.97497916       2.07603348       0.49994135      -0.43084878       0.34973338       0.98591334
O       -2.44623783       2.30446756       1.60113890       0.30553943      -0.27365434      -0.72836167
H        1.16798834      -2.19959105       2.10588341       0.01983029       0.01974107      -0.02494895
C        2.48510463       0.69286051       2.58127559       0.01820354       0.01116148      -0.00295840
H        2.62286442       1.55789946       3.23797824       0.01324312      -0.01278502       0.01210970
H        2.04051633      -0.11541804       3.16863236      -0.00668799      -0.00821295      -0.01604285
H        3.47004792       0.36046813       2.25958169      -0.03189386       0.00783248      -0.01524970
H       -0.61833964       1.62398671      -1.78961031       0.04021675       0.44100100       0.05323211
C       -2.78944181       2.39219332      -0.72717151      -0.03654397       0.15803829      -0.00185895
H       -2.66299742       1.68538143      -1.53215512       0.06083709      -0.17110118      -0.15802948
H       -3.83332324       2.43305246      -0.43524190      -0.02996070      -0.01896255       0.05791283
H       -2.49103446       3.37679862      -1.09251166       0.01809531       0.04609333      -0.01833833
C        2.68163103      -2.24858123      -1.28972293       0.07277707      -0.00241322      -0.07417364
H        2.65994849      -1.33738674      -1.88147211       0.02024206       0.01640104      -0.01812785
H        3.70436217      -2.51552917      -1.04889546       0.06691996       0.01644529       0.01617802
H        2.22305977      -3.04100206      -1.88357216       0.02058261      -0.02375933       0.00965017
C       -0.54478518       1.65022418       0.32924782      -0.23785019       0.03270837       0.66189766
C        1.65680488       1.04765490       1.37770708       0.00479774       0.02886168       0.10554381
H        2.82382228       0.84899059      -2.20467557      -0.13239151       0.02325230       0.04853198
O       -0.27152688       1.33504601       2.68154338       0.04021074       0.06384010      -0.02580930
H        0.37992950       1.13940617       3.36874950      -0.00802983      -0.08874953      -0.04372418
52
Properties=species:S:1:pos:R:3:forces:R:3 charge=0 spin=1 energy=-37508.811299031055 free_energy=-37508.811299031055 stress="-0.7883113026618958 -2.2180604934692383 -0.1657564342021942 -2.2180604934692383 -2.8274381160736084 0.15065032243728638 -0.1657564342021942 0.15065032243728638 -0.9233424663543701" pbc="F F F"
C        1.46020312       1.55834276      -1.09346560      -0.10379117       0.59859717       0.02768731
O        1.87684684       0.93540916      -2.28797606      -0.18402486      -0.01687957       0.02124657
C        0.33249811       1.32959609       1.48973088      -0.10242908       0.31169277      -0.12339612
C        2.27595601       1.03437610       0.07889446      -0.06639965       0.02122337      -0.12420267
C       -0.01682350       1.58072258      -0.88813578       0.56731647      -1.23175418      -1.11048341
C       -1.67487275      -1.29944244       1.12708834      -0.26615328       0.41928098       0.04092936
C       -2.30899488      -1.01510139      -0.13439347      -0.12483630      -0.10606778      -0.21288779
C       -0.05078982      -1.34155615      -1.27297119      -0.37496698       1.48970342      -0.23938678
H        0.54609835      -1.10053763      -2.14832339      -0.08715744      -0.45207098      -0.02673735
C       -1.52854455      -1.27322782      -1.42257257       0.11074079      -0.64277530      -0.12853338
C        0.49358333      -1.61921215      -0.09043717       0.01319918      -0.65282685       0.82641929
C       -0.36886588      -1.64324812       1.13982631       0.82239443      -0.22033890      -0.41661555
O        0.22093763      -1.95371817       2.29970219      -0.05342938       0.06409694      -0.06309924
O       -3.47428763      -0.65652232      -0.25896698       0.22735421       0.03816922      -0.00905334
C        1.91150822      -2.07332933      -0.01821765      -0.27190924      -0.09517642       0.00692704
O        2.41036857      -2.40803877       1.04586565       0.10554294       0.06993423       0.17107718
C       -1.82459909      -2.73628365      -1.83232176      -0.25477463      -0.05367814      -0.01544941
H       -1.27703043      -2.94906269      -2.74980668      -0.08105937      -0.06448079      -0.03719434
H       -1.50702059      -3.42302310      -1.05143808      -0.08280001      -0.11540135       0.02115703
H       -2.89361011      -2.83236205      -2.00813590      -0.09885609      -0.09205421      -0.02245222
C        1.72986445       3.08078810      -1.18226760       0.27418995       0.03503188      -0.03688782
H        1.40363995       3.57481461      -0.26947598       0.10906556       0.09364813       0.02219650
H        2.79301669       3.24500626      -1.34479999       0.09086037       0.07943830      -0.02056352
H        1.15789589       3.47129074      -2.02316154       0.09539136       0.07533865      -0.02615651
C       -2.46905629      -1.09539982       2.37998056      -0.01204144      -0.04459013       0.01984848
H       -1.81486066      -1.08492544       3.24735399      -0.03832126      -0.06588481       0.01561625
H       -3.00570363      -0.14455451       2.33994652       0.03651284      -0.10719876      -0.06038275
H       -3.20090241      -1.89408106       2.48764406      -0.12914938      -0.02691240       0.11976898
O        3.42721026       0.68250949      -0.15124696      -0.08285499       0.01151759      -0.00935582
O       -1.96216642      -0.41559348      -2.45115498       0.10319638       0.06813042       0.03910176
H       -2.92443549      -0.34046017      -2.31874795       0.16835655      -0.00662798       0.04997098
C       -1.96083950       2.08561694       0.50587597      -0.21416962       0.31832349       0.64523679
O       -2.39497543       2.38275813       1.60109807       0.14258169      -0.24299097      -0.44012177
H        1.15774313      -2.19911167       2.10169922       0.03775296       0.02652479      -0.02457353
C        2.49124693       0.69267150       2.58232413       0.01278671       0.00717112      -0.01019326
H        2.61884041       1.56331990       3.23336552       0.01232707      -0.01140566       0.01612819
H        2.05877659      -0.11767728       3.17500916      -0.01621249      -0.02234816      -0.00848799
H        3.47929286       0.37079997       2.26088237      -0.01798371       0.00204447      -0.01733766
H       -0.62408233       1.55546411      -1.79028404       0.09693026       0.45809105       0.14150213
C       -2.79624059       2.36056214      -0.71673927      -0.03643858       0.13420787       0.01898816
H       -2.63588920       1.67506267      -1.53214998       0.06451906      -0.18330751      -0.17074722
H       -3.83776524       2.34071981      -0.41972988      -0.09189842      -0.01465814       0.06310094
H       -2.55658104       3.36502752      -1.06698140       0.02730377       0.09353922      -0.02527181
C        2.66473679      -2.25932539      -1.29660220       0.08639909      -0.00932366      -0.08480093
H        2.66444068      -1.34727454      -1.88615690       0.02190546       0.03532516      -0.03156094
H        3.68051776      -2.55500667      -1.06303831       0.09222532       0.01022952       0.02118174
H        2.18111189      -3.03672391      -1.89004972       0.01749369      -0.03028115       0.00776709
C       -0.53952393       1.62732982       0.32583456      -0.50972271       0.00562569       1.14511251
C        1.65769010       1.03194296       1.37803500       0.06313677       0.05288654       0.12038964
H        2.84060458       0.84242958      -2.19012649      -0.12537071       0.01102885       0.04152897
O       -0.26916919       1.31723836       2.68299914       0.04913346       0.05674451      -0.06184064
H        0.38300143       1.11100044       3.36671934      -0.02186513      -0.07851140      -0.04510884
52
Properties=species:S:1:pos:R:3:forces:R:3 charge=0 spin=1 energy=-37508.788520758426 free_energy=-37508.788520758426 stress="-1.3928414583206177 -1.8169865608215332 0.06994546204805374 -1.8169865608215332 -3.525606632232666 0.07039875537157059 0.06994546204805374 0.07039875537157059 -1.665846347808838" pbc="F F F"
C        1.45703638       1.53088436      -1.09431454      -0.09237956       0.48854488       0.04148178
O        1.89392680       0.92609168      -2.28885280      -0.15968484      -0.03826781      -0.02375322
C        0.33136809       1.31076458       1.48986045      -0.02032305       0.29949027      -0.07104591
C        2.27537468       1.01656006       0.07763260      -0.04207690      -0.00670301      -0.05894816
C       -0.01971240       1.50353570      -0.88887419       0.57167220      -0.78434104      -1.20988059
C       -1.67063689      -1.27041617       1.12006286      -0.41856343       0.43300813       0.00642237
C       -2.30654567      -0.99250240      -0.14356653      -0.17896871      -0.09317765      -0.16304520