52
Properties=species:S:1:pos:R:3:forces:R:3 IM1.com=T energy=2.836431591034747e-29 pbc="F F F"
C        1.46709968       1.66020265      -1.10815858      -0.00000000      -0.00000000       0.00000000
O        1.80872140       0.98806483      -2.30197796       0.00000000       0.00000000       0.00000000
C        0.30861480       1.38389352       1.48081543       0.00000000      -0.00000000       0.00000000
C        2.26181295       1.10112749       0.06665341       0.00000000      -0.00000000      -0.00000000
C       -0.00526835       1.65886899      -0.90367355       0.00000000      -0.00000000      -0.00000000
C       -1.66660797      -1.36822487       1.15626499       0.00000000      -0.00000000       0.00000000
C       -2.31165943      -1.08265268      -0.09650213      -0.00000000       0.00000000       0.00000000
C       -0.08478975      -1.40537083      -1.25107360      -0.00000000       0.00000000       0.00000000
H        0.48812068      -1.34508060      -2.16962100      -0.00000000       0.00000000      -0.00000000
C       -1.56371014      -1.36882172      -1.39753322       0.00000000      -0.00000000       0.00000000
C        0.49193539      -1.70245753      -0.06932924      -0.00000000      -0.00000000      -0.00000000
C       -0.33634600      -1.69953132       1.15724439       0.00000000       0.00000000       0.00000000
O        0.25355513      -1.98809122       2.31695433      -0.00000000       0.00000000      -0.00000000
O       -3.47938551      -0.68413018      -0.19342223      -0.00000000       0.00000000       0.00000000
C        1.93196743      -2.06649506       0.00085934      -0.00000000      -0.00000000       0.00000000
O        2.45653977      -2.32088524       1.08979651       0.00000000      -0.00000000      -0.00000000
C       -1.95553632      -2.80842436      -1.82470545      -0.00000000       0.00000000       0.00000000
H       -1.45268470      -3.05514300      -2.76245024       0.00000000      -0.00000000      -0.00000000
H       -1.68279074      -3.54027631      -1.06104561       0.00000000       0.00000000       0.00000000
H       -3.03846803      -2.83402688      -1.97741104       0.00000000       0.00000000       0.00000000
C        1.84876165       3.15908121      -1.22366429       0.00000000      -0.00000000       0.00000000
H        1.60728057       3.70387885      -0.30807035       0.00000000       0.00000000       0.00000000
H        2.92517798       3.22473402      -1.40803502       0.00000000       0.00000000       0.00000000
H        1.31070256       3.60359406      -2.06385825      -0.00000000       0.00000000      -0.00000000
C       -2.46772624      -1.24246223       2.41845636       0.00000000      -0.00000000      -0.00000000
H       -1.82930866      -1.28356594       3.30106551       0.00000000       0.00000000       0.00000000
H       -3.00917268      -0.29294806       2.42859868       0.00000000       0.00000000       0.00000000
H       -3.21065515      -2.04396265       2.49410646       0.00000000       0.00000000       0.00000000
O        3.42844908       0.75542209      -0.15270004       0.00000000       0.00000000      -0.00000000
O       -1.95215858      -0.45439860      -2.39993156      -0.00000000       0.00000000      -0.00000000
H       -2.90665801      -0.33796554      -2.27501170      -0.00000000       0.00000000      -0.00000000
C       -2.01014567       2.04308938       0.46931849      -0.00000000       0.00000000      -0.00000000
O       -2.58219960       2.03239974       1.54962492       0.00000000       0.00000000       0.00000000
H        1.21088910      -2.16604848       2.13186687       0.00000000      -0.00000000       0.00000000
C        2.45395772       0.66136305       2.56087872       0.00000000       0.00000000       0.00000000
H        2.62294470       1.49946479       3.24743047      -0.00000000      -0.00000000      -0.00000000
H        1.97080443      -0.14667123       3.12147073      -0.00000000       0.00000000      -0.00000000
H        3.42804823       0.29755436       2.23189407       0.00000000       0.00000000       0.00000000
H       -0.59671094       1.81871557      -1.79742014       0.00000000       0.00000000       0.00000000
C       -2.74573560       2.50210898      -0.76442572       0.00000000      -0.00000000       0.00000000
H       -2.72402791       1.74000939      -1.54574216       0.00000000       0.00000000       0.00000000
H       -3.77977020       2.70960617      -0.48967460       0.00000000       0.00000000       0.00000000
H       -2.28411308       3.40918638      -1.16560845       0.00000000       0.00000000       0.00000000
C        2.72796173      -2.19446401      -1.26050354      -0.00000000       0.00000000       0.00000000
H        2.63752759      -1.29970064      -1.87794214       0.00000000      -0.00000000       0.00000000
H        3.77302021      -2.36348785      -1.00291062       0.00000000      -0.00000000       0.00000000
H        2.35038537      -3.04296843      -1.83979182       0.00000000       0.00000000       0.00000000
C       -0.56213861       1.67570984       0.32496284      -0.00000000       0.00000000       0.00000000
C        1.64121524       1.07542819       1.36601470       0.00000000      -0.00000000       0.00000000
H        2.77040876       0.87512467      -2.26347471       0.00000000       0.00000000      -0.00000000
O       -0.29022224       1.38418611       2.67456520      -0.00000000       0.00000000       0.00000000
H        0.35208796       1.17544116       3.36682653       0.00000000       0.00000000       0.00000000
52
Properties=species:S:1:pos:R:3:forces:R:3 IM1.com=T energy=0.005538712041995241 pbc="F F F"
C        1.47000021       1.62915858      -1.09960138      -0.01281566       0.03368684       0.01359207
O        1.84054271       0.97847340      -2.29934308      -0.00249970       0.00894458       0.02796714
C        0.32305923       1.36805646       1.49261674      -0.11208522       0.03706920      -0.07136133
C        2.27488673       1.08221448       0.07472996      -0.02336848       0.00205809      -0.01673070
C       -0.00793275       1.56918238      -0.90544911       0.05924202      -0.00803605       0.01821500
C       -1.64481910      -1.27547354       1.13792032       0.00334083      -0.00281816      -0.00357823
C       -2.31388430      -1.06971338      -0.12072763      -0.00347523       0.00353095       0.02837781
C       -0.07475815      -1.34106854      -1.25528951      -0.02462958       0.00513115      -0.00181117
H        0.49549635      -1.29640175      -2.17650982      -0.00048457      -0.00132874       0.00842450
C       -1.55357734      -1.34828536      -1.41891482      -0.00246357       0.00049921       0.01048386
C        0.49142718      -1.69161388      -0.07791779       0.03536047      -0.01587146       0.03992492
C       -0.32903730      -1.67644168       1.13853864      -0.01733836      -0.00384203       0.03533892
O        0.23785138      -2.00289587       2.30280733      -0.03634438       0.02066711      -0.07165759
O       -3.50070706      -0.72544297      -0.21865327       0.06133361      -0.01779149       0.00506068
C        1.91006269      -2.10731747      -0.01391221       0.01302962      -0.00322462      -0.01276702
O        2.43313880      -2.40539167       1.07271606      -0.04365402       0.01072320       0.00950078
C       -1.91780981      -2.78884734      -1.84841652       0.00000000       0.00000000       0.00000000
H       -1.40809479      -3.02397020      -2.78602113       0.00000000       0.00000000       0.00000000
H       -1.63317189      -3.51822055      -1.08675627      -0.00037700       0.00361318      -0.00156775
H       -2.99911724      -2.83773958      -2.00449220       0.00000000       0.00000000       0.00000000
C        1.80890444       3.14099661      -1.20476815      -0.02905923      -0.04184822       0.00861996
H        1.53989744       3.67385600      -0.29095276       0.00129180      -0.00469360      -0.00283483
H        2.88358676       3.23917135      -1.37830522      -0.00058695      -0.00275620      -0.00677493
H        1.26317125       3.56903272      -2.04846496       0.01245890      -0.00163872       0.00340268
C       -2.45093017      -1.16644783       2.39982073       0.00273146       0.00033533      -0.02038219
H       -1.81556090      -1.19399593       3.28478181      -0.00040105      -0.00023292      -0.00024060
H       -3.00996586      -0.22714617       2.40778291      -0.00358507       0.00250628       0.00358261
H       -3.17521307      -1.98366587       2.46906882       0.00040105       0.00023292       0.00024060
O        3.44236065       0.73556769      -0.14110248      -0.02106021       0.00578605       0.00164226
O       -1.95479388      -0.43575224      -2.42423417      -0.00153993      -0.00699745       0.01386452
H       -2.91471286      -0.35642445      -2.31847826       0.00000000       0.00000000       0.00000000
C       -2.02127519       2.05562647       0.49972086       0.22063878      -0.07935955      -0.28171460
O       -2.52506913       2.17622857       1.59367339      -0.07788522       0.01472135       0.23796706
H        1.19074207      -2.21852567       2.11836713      -0.01822562       0.00833431      -0.02237711
C        2.48077768       0.70055716       2.58468004       0.01454656      -0.00883645      -0.03268637
H        2.63100491       1.55812257       3.25016672       0.00656284       0.01378002       0.01059403
H        2.00649798      -0.09983689       3.16324700       0.00156611      -0.00623128       0.00273131
H        3.46148446       0.34777835       2.26520101       0.02495281      -0.00179864      -0.03071677
H       -0.59770540       1.77047356      -1.79517282       0.04475574      -0.00305878       0.01505573
C       -2.78253347       2.46128635      -0.73897399       0.07381853      -0.05123285      -0.04768275
H       -2.72480123       1.70366049      -1.52582191      -0.03742182       0.05646266       0.08950021
H       -3.82742416       2.59831141      -0.46667933      -0.06755325       0.01070388       0.00893427
H       -2.38529964       3.39777817      -1.13300030       0.00000000       0.00000000       0.00000000
C        2.70541622      -2.23605654      -1.27820252      -0.04697392       0.07576211       0.05010753
H        2.65100497      -1.32088471      -1.86925963       0.00848323      -0.00147607      -0.00300794
H        3.73978974      -2.45395780      -1.02158676       0.10962016      -0.01782668      -0.01829870
H        2.29331758      -3.04842690      -1.88144846      -0.03509189      -0.06408066      -0.04852946
C       -0.57607385       1.57683232       0.33609071       0.01008800       0.00514323       0.06500402
C        1.65920068       1.07162262       1.37915263       0.01148181      -0.00513762       0.00172222
H        2.79973443       0.85668311      -2.23037862       0.00028376       0.00415453      -0.00068897
O       -0.26716301       1.37304255       2.69218354      -0.09521942       0.02342159       0.00769636
H        0.37807502       1.21623143       3.39556874      -0.00184873       0.00285047      -0.02214204
52
Properties=species:S:1:pos:R:3:forces:R:3 IM1.com=T energy=0.0067567648042600945 pbc="F F F"
C        1.46907564       1.59914077      -1.08903217      -0.01994610       0.03240536       0.00702723
O        1.86813557       0.97232622      -2.29265678      -0.00398363       0.01187159       0.03940827
C        0.33033280       1.35156119       1.50558219      -0.07889638       0.03208915      -0.02256909
C        2.28174480       1.06590682       0.08619544      -0.02479728       0.00099104      -0.01741802
C       -0.01026217       1.48091538      -0.90434594       0.05831145      -0.00628828       0.01719743
C       -1.62211360      -1.18374761       1.11906871       0.00015936      -0.00440455      -0.00950563
C       -2.30984876      -1.05805804      -0.14368377      -0.00769201       0.00104432       0.03935884
C       -0.06505097      -1.27873725      -1.25923516       0.00000000       0.00000000       0.00000000
H        0.50441478      -1.24961432      -2.18160863      -0.00064442      -0.00170954       0.00998666
C       -1.54260111      -1.32777032      -1.43933148      -0.00327557       0.00086446       0.01406056
C        0.49042205      -1.68020152      -0.08836844       0.03325247      -0.01844664       0.04590932
C       -0.32154873      -1.65354318       1.11977420      -0.04924423       0.00627168       0.00369778
O        0.21607168      -2.01454377       2.28689935      -0.02373140       0.01732108      -0.05870814
O       -3.51276617      -0.77005731      -0.23415585       0.08103141      -0.01940042       0.00609442
C        1.88621005      -2.14656332      -0.02979102       0.01493078      -0.00241613      -0.02374652
O        2.40029894      -2.48568497       1.05384379      -0.03058656       0.00729592       0.01388246
C       -1.88040903      -2.77043906      -1.87174301       0.00086993      -0.00213772       0.00223579
H       -1.36429203      -2.99419561      -2.80892527       0.00000000       0.00000000       0.00000000
H       -1.58466588      -3.49718045      -1.11166128      -0.00086993       0.00213772      -0.00223579
H       -2.96026325      -2.84050842      -2.03108888       0.00000000       0.00000000       0.00000000
C        1.76570471       3.12006872      -1.18482976      -0.01054529      -0.03298613       0.00520372
H        1.47283518       3.64253929      -0.27231881       0.00201416      -0.01119222      -0.00584025
H        2.83910916       3.24994717      -1.34755053      -0.02031147      -0.00596415      -0.00445222
H        1.21632988       3.53459985      -2.03289791       0.01440091      -0.00164980       0.00438523
C       -2.43223907      -1.09298382       2.37948676      -0.00508869       0.01368476      -0.02585270
H       -1.79944730      -1.10844658       3.26648939       0.00000000       0.00000000       0.00000000
H       -3.00952086      -0.16431685       2.38674583      -0.00187450      -0.00967862       0.00966359
H       -3.13986060      -1.92413799       2.44471900       0.00022770       0.00307434      -0.00010128
O        3.44910891       0.71789747      -0.12812680      -0.01261407       0.00393140       0.00148682
O       -1.95471406      -0.42084228      -2.44689636      -0.00591645      -0.00318818       0.01258232
H       -2.91952959      -0.37448622      -2.36110189       0.00403165      -0.00019371      -0.00035851
C       -1.99773015       2.06469931       0.50952875       0.02564269      -0.05399520      -0.16863130
O       -2.43730622       2.32864387       1.61603497       0.00825952      -0.00276957      -0.02851396
H        1.16130856      -2.26731574       2.10261699      -0.00981682       0.00854319      -0.03177920
C        2.50084630       0.74106678       2.60492038       0.01482102      -0.00239859      -0.03903154
H        2.63586669       1.61667570       3.25012916       0.00919577      -0.00266147      -0.00164393
H        2.03834478      -0.05297345       3.20183372       0.02354127      -0.00558501       0.00356122
H        3.48679545       0.39797189       2.29199227       0.01309570       0.00264126      -0.03197728
H       -0.60065288       1.72293291      -1.78504258       0.05463381      -0.00326769       0.01837231
C       -2.81303871       2.41429729      -0.71358056       0.02961730      -0.02632739      -0.00594545
H       -2.72635513       1.66835823      -1.50772880      -0.04131113       0.05388111       0.11965654
H       -3.86066252       2.47856376      -0.41076158      -0.01556909       0.00345879      -0.00769115
H       -2.48845064       3.38425132      -1.09671286       0.00000000       0.00000000       0.00000000
C        2.68141508      -2.27524495      -1.29451782      -0.03327706       0.04216304       0.04224485
H        2.66593744      -1.34074349      -1.86055752      -0.00174406      -0.02409127       0.00371091
H        3.70578913      -2.54242310      -1.04062943       0.05499511      -0.01018476      -0.02265834
H        2.23793267      -3.05257986      -1.92293831      -0.01748077      -0.03064025      -0.02477048
C       -0.58206483       1.48601955       0.34592461       0.00484355       0.02129578       0.13409447
C        1.66964609       1.07049210       1.39254526       0.04566802      -0.01519447       0.02440144
H        2.82368312       0.83825477      -2.19620069       0.00174406       0.02409127      -0.00371091
O       -0.25601419       1.36187589       2.70771360      -0.07832527       0.00448965       0.01655254
H        0.39404900       1.25833326       3.41597551       0.00225454       0.00322485      -0.05763303
52
Properties=species:S:1:pos:R:3:forces:R:3 IM1.com=T energy=0.01000218140206742 pbc="F F F"
C        1.46568419       1.57064125      -1.07767982      -0.01210348       0.00810793       0.01254095
O        1.89311513       0.96839479      -2.28333503      -0.00015718       0.00427104       0.02268634
C        0.33317381       1.33503694       1.51833269       0.01230086       0.00492760       0.01609819
C        2.28470477       1.05152805       0.09929234      -0.00915709      -0.00167798      -0.00973285
C       -0.01223731       1.39485011      -0.90223026       0.04029530      -0.00397293       0.01010989
C       -1.59911575      -1.09444293       1.09987914       0.01263393      -0.00575681      -0.00096501
C       -2.30245090      -1.04692863      -0.16492824      -0.00637084      -0.00170893       0.03032634
C       -0.05581859      -1.21840489      -1.26292827       0.00000000       0.00000000       0.00000000
H        0.51450303      -1.20479418      -2.18508563      -0.00033471      -0.00084855       0.00461369
C       -1.53150889      -1.30750716      -1.45892893      -0.00317768       0.00102938       0.01376112
C        0.48949939      -1.66879734      -0.09902782       0.00712557      -0.00720903       0.02444531
C       -0.31427494      -1.63105905       1.10150577      -0.06291549       0.01848471      -0.04007609
O        0.19136594      -2.02401312       2.26911400       0.01326670      -0.00211810      -0.01358752
O       -3.51813373      -0.81617953      -0.24333455       0.05297992      -0.01085391      -0.00789697
C        1.86222604      -2.18462714      -0.04601389       0.00606386      -0.00097447      -0.00964427
O        2.36167499      -2.56203503       1.03355390      -0.00186169      -0.00427472       0.02399615
C       -1.84378548      -2.75324686      -1.89459668      -0.00232117      -0.00445301       0.00370289
H       -1.32156683      -2.96603700      -2.83109180       0.00000000       0.00000000       0.00000000
H       -1.53749827      -3.47705892      -1.13579373      -0.00174180       0.00411619      -0.00431517
H       -2.92199715      -2.84263198      -2.05708165       0.00406297       0.00033683       0.00061228
C        1.72144645       3.09767198      -1.16439557       0.00127006      -0.00092958       0.00196708
H        1.40710448       3.61038097      -0.25353417       0.00034617      -0.01205374      -0.00487025
H        2.79288586       3.25827347      -1.31651357      -0.00709924      -0.00529140      -0.00033121
H        1.17082206       3.50068339      -2.01720763       0.00135889       0.00053669      -0.00083143
C       -2.41295815      -1.02197042       2.35823469      -0.01355439       0.02514634      -0.02017573
H       -1.78230685      -1.02645954       3.24711816       0.00000000       0.00000000       0.00000000
H       -3.00822660      -0.10432259       2.36577711       0.00169404      -0.01547070       0.01355485
H       -3.10497126      -1.86585092       2.42096737       0.00000000       0.00000000       0.00000000
O        3.45165661       0.70170000      -0.11421275      -0.00917380       0.00320641      -0.00096368
O       -1.95370525      -0.40841408      -2.46870446      -0.03600527      -0.00270007       0.01414642
H       -2.92162442      -0.39216245      -2.40274651       0.03421676      -0.00057451      -0.00233167
C       -1.95825592       2.07391567       0.51015094      -0.18018951       0.05204597      -0.03094306
O       -2.32700815       2.48268576       1.61035027       0.01980815      -0.03857667      -0.22111741
H        1.12617439      -2.31293021       2.08517995      -0.00712557       0.00720903      -0.02444531
C        2.51617106       0.78180047       2.62249552       0.01289152      -0.00211624      -0.02367629
H        2.63848901       1.67367150       3.24826124       0.01853308      -0.01390699      -0.01059249
H        2.06732139      -0.00622010       3.23783751       0.03578136       0.00015127      -0.00104361
H        3.50661445       0.44776998       2.31420854       0.00579813       0.00435379      -0.02257024
H       -0.60376011       1.67635469      -1.76999300       0.03088121      -0.00157751       0.01033102
C       -2.83869313       2.36481709      -0.68372105      -0.01673109      -0.01251789       0.03587996
H       -2.72864022       1.63633340      -1.48790655      -0.02944104       0.02977038       0.10241973
H       -3.87863706       2.35532886      -0.33670403       0.06782003       0.00801708      -0.04433264
H       -2.59395968       3.36459464      -1.05474781      -0.00534172      -0.00811579       0.00412251
C        2.65707003      -2.31235956      -1.31017400      -0.00772096       0.00768636       0.00859833
H        2.68185897      -1.36182620      -1.85101444       0.00373509      -0.04030034       0.01212886
H        3.66992054      -2.62802517      -1.06064105      -0.01271362       0.00174054      -0.03370955
H        2.18530501      -3.05407259      -1.96289736       0.01811178       0.00519763       0.01100721
C       -0.58855759       1.40287671       0.35868251      -0.01346791       0.04191034       0.11497073
C        1.67571303       1.07060130       1.40617098       0.04888473      -0.01420624       0.03182204
H        2.84388918       0.82031263      -2.16188319       0.00195257       0.02629615      -0.00374616
O       -0.25196801       1.35148992       2.72175289      -0.02778348      -0.04072207       0.02806382
H        0.40327040       1.30066399       3.43018791       0.01467604      -0.00163347      -0.02000710
52
Properties=species:S:1:pos:R:3:forces:R:3 IM1.com=T energy=0.015055760569839767 pbc="F F F"
C        1.46087567       1.54382674      -1.06627780       0.00837791       0.00328659       0.01772736
O        1.91648609       0.96547158      -2.27239980       0.00064422       0.00012732       0.00416359
C        0.33373207       1.31855453       1.53028061       0.00144893       0.00519849       0.01534759
C        2.28554635       1.03841011       0.11283328       0.00922416      -0.00420540      -0.00147663
C       -0.01363914       1.31137239      -0.90038800       0.01506682      -0.00164829       0.00312576
C       -1.57629260      -1.00843926       1.08039724       0.01673014      -0.00184218      -0.00191087
C       -2.29371875      -1.03574659      -0.18432727       0.00354322      -0.00123140       0.00625441
C       -0.04718784      -1.15973223      -1.26652346       0.00044031       0.00144906      -0.00669456
H        0.52533751      -1.16168035      -2.18730382       0.00000000       0.00000000       0.00000000
C       -1.52083326      -1.28760570      -1.47790657      -0.00281022       0.00107687       0.01227741
C        0.48897895      -1.65771149      -0.10890127       0.00130826      -0.00152473       0.00474953
C       -0.30743411      -1.60898432       1.08400786      -0.04088338       0.01179886      -0.02610594
O        0.16598684      -2.03220923       2.24970447       0.02193110      -0.00765746      -0.00599877
O       -3.51875689      -0.86252964      -0.24868363       0.01665785      -0.00390010      -0.01384675
C        1.83899833      -2.22182721      -0.06209312       0.00000000       0.00000000       0.00000000
O        2.31985821      -2.63498268       1.01225603       0.00247409      -0.00459233       0.01461808
C       -1.80810490      -2.73702106      -1.91698947      -0.00330525      -0.00430821       0.00115622
H       -1.27995960      -2.93920322      -2.85258503      -0.00087641       0.00033550       0.00155254
H       -1.49161401      -3.45758043      -1.15931491      -0.00126523       0.00187433      -0.00291573
H       -2.88426055      -2.84434490      -2.08248417       0.00567787       0.00056625       0.00087316
C        1.67764440       3.07487655      -1.14385548       0.00546144       0.00046715       0.00023442
H        1.34308960       3.57778964      -0.23540630       0.00044983      -0.00776772      -0.00317311
H        2.74578767       3.26515998      -1.28562913      -0.00489369      -0.00087178       0.00064954
H        1.12682919       3.46744086      -2.00144647      -0.00056775       0.00040463      -0.00088395
C       -2.39397399      -0.95302110       2.33670016      -0.01284055       0.02425107      -0.00113467
H       -1.76501845      -0.94724938       3.22722787      -0.00437068      -0.00004011      -0.00618837
H       -3.00627330      -0.04668240       2.34480777       0.00160250      -0.01476177       0.01333983
H       -3.07068366      -1.80892672       2.39767335       0.00000000       0.00000000       0.00000000
O        3.45210430       0.68634310      -0.09970248      -0.00884720       0.00339639      -0.00325643
O       -1.95300703      -0.39713859      -2.49003913      -0.01442281      -0.00316884       0.01703428
H       -2.92166654      -0.40950993      -2.44349015       0.01068818       0.00013651      -0.00051362
C       -1.91584572       2.08534711       0.50904850      -0.13988168       0.07822421       0.00643149
O       -2.20112670       2.63170934       1.57503063      -0.00347209      -0.00523530      -0.10432881
H        1.08823051      -2.35611423       2.06662710      -0.00130826       0.00152473      -0.00474953
C        2.52837410       0.82209989       2.63832966       0.01776888      -0.00389699      -0.00852127
H        2.63951566       1.72845891       3.24531077       0.02189849      -0.01087573      -0.01075453
H        2.09428131       0.04039826       3.27198672       0.03131062       0.00135605      -0.00239634
H        3.52300050       0.49705260       2.33353929       0.00951360       0.00076562      -0.01273164
H       -0.60585947       1.63071140      -1.75247323       0.00000000       0.00000000       0.00000000
C       -2.86079794       2.31543545      -0.64683725      -0.02740960      -0.00537026       0.01423121
H       -2.73217775       1.60877642      -1.46437536      -0.01459806      -0.01754028       0.03525423
H       -3.88182447       2.23203644      -0.25530455       0.04768821       0.00973191      -0.06861808
H       -2.70161588       3.33661802      -1.00598464      -0.00214094      -0.00404223      -0.00069512
C        2.63308135      -2.34793910      -1.32567233      -0.00104209       0.00013336       0.00151022
H        2.69838409      -1.38562279      -1.84020455       0.00000000       0.00000000       0.00000000
H        3.63160913      -2.71061068      -1.08192355      -0.01077022      -0.00305332      -0.01119408
H        2.13582049      -3.05235135      -2.00062768       0.01284157       0.00293389       0.00788721
C       -0.60013300       1.32640059       0.37619750      -0.01050896       0.03621266       0.04273608
C        1.67964754       1.07102485       1.42009808       0.01958742      -0.00536242       0.02051182
H        2.86155907       0.80316509      -2.12796315       0.00000000       0.00000000       0.00000000
O       -0.25126055       1.34371983       2.73473417      -0.00135855      -0.06994461       0.02818983
H        0.40830718       1.34256491       3.44032268       0.02523800      -0.00241002       0.02823300
52
Properties=species:S:1:pos:R:3:forces:R:3 IM1.com=T energy=0.019344446415857145 pbc="F F F"
C        1.45510089       1.51823221      -1.05459740       0.00002481      -0.00286435       0.00800696
O        1.93806764       0.96238972      -2.26010798       0.00000000       0.00000000       0.00000000
C        0.33301443       1.30110029       1.54237548      -0.01086126       0.00370014       0.02017317
C        2.28500454       1.02590133       0.12673808       0.00930358      -0.00779057       0.00309728
C       -0.01386069       1.23009840      -0.89897817       0.00000000       0.00000000       0.00000000
C       -1.55380590      -0.92561395       1.06042906      -0.00091607       0.00395275      -0.00041692
C       -2.28399066      -1.02428195      -0.20234631       0.00412808       0.00687191      -0.01063639
C       -0.03923987      -1.10166696      -1.27044124      -0.00224987       0.00298653      -0.00825447
H        0.53639627      -1.11935763      -2.18900458       0.00168784      -0.00005187      -0.00269335
C       -1.51072840      -1.26794140      -1.49656810       0.00335669      -0.00072123       0.00159566
C        0.48867620      -1.64673606      -0.11827335      -0.00021690       0.00029083      -0.00083837
C       -0.30090167      -1.58687085       1.06701081      -0.00886472       0.00251486      -0.00567422
O        0.14044452      -2.03989585       2.22964168       0.02452522      -0.01040670      -0.00296154
O       -3.51537140      -0.90882527      -0.25092935      -0.01031663      -0.00012539      -0.00847467
C        1.81561063      -2.25833382      -0.07807598       0.00154189      -0.00088633       0.00093139
O        2.27537419      -2.70559495       0.99042883      -0.00107286      -0.00316845       0.01349090
C       -1.77297799      -2.72093530      -1.93912786       0.00050134      -0.00768615      -0.00078447
H       -1.23902529      -2.91241480      -2.87373181       0.00237159      -0.01419730       0.00105684
H       -1.44641307      -3.43812288      -1.18263502       0.00081409      -0.00733181       0.00232815
H       -2.84670468      -2.84575765      -2.10756871      -0.00087343      -0.00864595       0.00183257