52
Properties=species:S:1:pos:R:3:forces:R:3 charge=0 spin=1 energy=-37509.094065730846 free_energy=-37509.094065730846 stress="4.514920711517334 -1.447767972946167 -0.43555086851119995 -1.447767972946167 0.6317158937454224 -0.3954714834690094 -0.43555086851119995 -0.3954714834690094 4.02268648147583" pbc="F F F"
C        1.46709968       1.66020265      -1.10815858      -0.05003073       0.16113919       0.06858511
O        1.80872140       0.98806483      -2.30197796      -0.02534579      -0.01386589      -0.00697205
C        0.30861480       1.38389352       1.48081543       0.30385309      -0.07418769       0.04611544
C        2.26181295       1.10112749       0.06665341       0.76913518      -0.11566488      -0.13467816
C       -0.00526835       1.65886899      -0.90367355      -0.12909994       0.11157066       0.36921892
C       -1.66660797      -1.36822487       1.15626499       0.48026264      -0.07517800       0.12906949
C       -2.31165943      -1.08265268      -0.09650213      -0.96101576       0.20127448      -0.10437053
C       -0.08478975      -1.40537083      -1.25107360       0.13886926      -0.20097725       0.21146069
H        0.48812068      -1.34508060      -2.16962100      -0.02277521       0.03953312       0.06927302
C       -1.56371014      -1.36882172      -1.39753322      -0.00308150      -0.09621176      -0.01215747
C        0.49193539      -1.70245753      -0.06932924      -0.12618068       0.10103036      -0.35035113
C       -0.33634600      -1.69953132       1.15724439      -0.55221468       0.07621796       0.03342736
O        0.25355513      -1.98809122       2.31695433       0.07545014       0.03031975       0.06413384
O       -3.47938551      -0.68413018      -0.19342223       0.98984140      -0.26746967      -0.09527562
C        1.93196743      -2.06649506       0.00085934       0.27048495      -0.09802242       0.72996718
O        2.45653977      -2.32088524       1.08979651      -0.23960462       0.14318961      -0.67699879
C       -1.95553632      -2.80842436      -1.82470545      -0.11730782       0.00490160       0.01165255
H       -1.45268470      -3.05514300      -2.76245024      -0.05515112       0.03129309       0.07047496
H       -1.68279074      -3.54027631      -1.06104561      -0.03093868       0.06612352      -0.04497647
H       -3.03846803      -2.83402688      -1.97741104       0.11245979      -0.00227865       0.02402710
C        1.84876165       3.15908121      -1.22366429       0.16552761      -0.01280162      -0.00096719
H        1.60728057       3.70387885      -0.30807035       0.02254363      -0.05705527      -0.06880061
H        2.92517798       3.22473402      -1.40803502      -0.10248494       0.00768227       0.02330064
H        1.31070256       3.60359406      -2.06385825       0.05118188      -0.05582829       0.07071496
C       -2.46772624      -1.24246223       2.41845636      -0.09404542       0.02544681       0.14274380
H       -1.82930866      -1.28356594       3.30106551      -0.01726530      -0.02673752      -0.13336149
H       -3.00917268      -0.29294806       2.42859868       0.07173116      -0.09585676      -0.07038254
H       -3.21065515      -2.04396265       2.49410646       0.07055453       0.06873440      -0.04487045
O        3.42844908       0.75542209      -0.15270004      -0.81844270       0.15046470       0.03087386
O       -1.95215858      -0.45439860      -2.39993156       0.09932242      -0.04819248      -0.02397249
H       -2.90665801      -0.33796554      -2.27501170      -0.03298010      -0.01710336       0.08180254
C       -2.01014567       2.04308938       0.46931849      -0.77303535      -0.01096216       1.15601635
O       -2.58219960       2.03239974       1.54962492       0.60716277       0.00536720      -0.98998106
H        1.21088910      -2.16604848       2.13186687      -0.04167711      -0.04328240      -0.06076992
C        2.45395772       0.66136305       2.56087872       0.05497814       0.03143934       0.05662057
H        2.62294470       1.49946479       3.24743047       0.01202856      -0.04323464      -0.03762585
H        1.97080443      -0.14667123       3.12147073       0.04068715       0.06348851      -0.03460809
H        3.42804823       0.29755436       2.23189407      -0.11051895       0.04914577       0.00756381
H       -0.59671094       1.81871557      -1.79742014       0.01629269      -0.04169441       0.07225449
C       -2.74573560       2.50210898      -0.76442572      -0.08470309       0.06264381      -0.15667298
H       -2.72402791       1.74000939      -1.54574216       0.01605918       0.08643980       0.07777092
H       -3.77977020       2.70960617      -0.48967460       0.14540362      -0.05542124       0.01311794
H       -2.28411308       3.40918638      -1.16560845      -0.04404784      -0.05297647       0.01763455
C        2.72796173      -2.19446401      -1.26050354       0.10011009      -0.05375409      -0.12316182
H        2.63752759      -1.29970064      -1.87794214      -0.01169519      -0.09891114       0.07568021
H        3.77302021      -2.36348785      -1.00291062      -0.13022625       0.03818399       0.00145803
H        2.35038537      -3.04296843      -1.83979182       0.04252021       0.05903310       0.03811906
C       -0.56213861       1.67570984       0.32496284       0.25994575      -0.02933411      -0.45367518
C        1.64121524       1.07542819       1.36601470      -0.38910058       0.02987221       0.00002072
H        2.77040876       0.87512467      -2.26347471       0.02732666       0.03438566       0.05278123
O       -0.29022224       1.38418611       2.67456520      -0.00874512       0.05919803      -0.03017691
H        0.35208796       1.17544116       3.36682653       0.02798187      -0.05111640      -0.09107312
52
Properties=species:S:1:pos:R:3:forces:R:3 charge=0 spin=1 energy=-37509.069354956424 free_energy=-37509.069354956424 stress="2.719736099243164 -1.899291753768921 -0.6115279197692871 -1.899291753768921 -0.2990201711654663 -0.16676397621631622 -0.6115279197692871 -0.16676397621631622 3.106125831604004" pbc="F F F"
C        1.46597810       1.63991843      -1.10064888      -0.01357541       0.32752854      -0.01494930
O        1.82491960       0.97428679      -2.29535823      -0.07423688       0.01845179       0.06039095
C        0.31949413       1.37461529       1.48569969       0.04319207       0.05444122      -0.02586231
C        2.26922559       1.08690901       0.07326162       0.31257868      -0.00208161      -0.13366206
C       -0.00673373       1.67082262      -0.90014592       0.00399510      -0.62980521       0.64269376
C       -1.66965640      -1.34672477       1.14782737       0.52066922      -0.03825036       0.09933938
C       -2.31350153      -1.07215936      -0.10758677      -0.38102257       0.03290568      -0.12059034
C       -0.07827485      -1.42323941      -1.27009101       0.04380020       0.48457685       0.72808874
H        0.50245151      -1.29584819      -2.16975419       0.05371560      -0.14214675      -0.14408582
C       -1.55472062      -1.35314086      -1.40683880      -0.04425043      -0.27628720      -0.11050551
C        0.49133356      -1.69489139      -0.07656296      -0.21441376      -0.08631605      -0.41652706
C       -0.34363747      -1.68894832       1.15065044      -0.43543026       0.06932767      -0.11838701
O        0.24386924      -1.98126602       2.31038793       0.10132413       0.02217124       0.05458767
O       -3.47783667      -0.69172441      -0.21202031       0.45631450      -0.05956671      -0.12349154
C        1.92514647      -2.07968297      -0.00569200       0.09400697      -0.11987099       0.38731509
O        2.44144249      -2.35964696       1.07430056      -0.06617862       0.11367784      -0.29294497
C       -1.93000333      -2.79486772      -1.83379146      -0.12891391      -0.03044531      -0.01656781
H       -1.41527553      -3.02992525      -2.76763668      -0.08009107      -0.00506536       0.04888237
H       -1.64344235      -3.51769857      -1.06833877      -0.05816091       0.01337960      -0.03168882
H       -3.00847465      -2.83606139      -1.99127869       0.00294660      -0.02957066       0.00797842
C        1.82410231       3.14340783      -1.21144351       0.18088257       0.02046343      -0.01496921
H        1.55809199       3.67622067      -0.29694660       0.05765228      -0.01207692      -0.04602998
H        2.89640148       3.23394471      -1.39033211       0.00074225       0.03322591       0.00518779
H        1.27531387       3.57253906      -2.05185477       0.07745459      -0.01315121       0.04585199
C       -2.46599777      -1.20001566       2.40893182      -0.04312212       0.01047123       0.08056496
H       -1.82172205      -1.22561564       3.28611707      -0.01928607      -0.04647562      -0.08113991
H       -3.00629936      -0.25117112       2.40656705       0.03588758      -0.07078224      -0.06689737
H       -3.20269792      -2.00286835       2.49045114      -0.01206892       0.02845417       0.02375893
O        3.42815222       0.73869960      -0.15118414      -0.47159374       0.06479190      -0.00732449
O       -1.95052018      -0.44435092      -2.41307673       0.08974891      -0.05446281       0.02734038
H       -2.90990938      -0.34416379      -2.29447756       0.08063003      -0.02520866       0.07269531
C       -2.00021692       2.05454276       0.48211171      -0.70670730       0.14969435       1.20998001
O       -2.54016279       2.12950605       1.57608197       0.50741059      -0.12823306      -0.93142253
H        1.19428837      -2.18680435       2.12082985      -0.02221776      -0.01381833      -0.03214074
C        2.46720212       0.67979245       2.57176478       0.03355515       0.02181560       0.02781309
H        2.62606553       1.52902459       3.24552662       0.01415043      -0.02742674      -0.01146611
H        1.99640604      -0.12672528       3.14354653       0.02556182       0.03545111      -0.03108627
H        3.44506576       0.32603730       2.24638024      -0.07886557       0.02948881      -0.00225950
H       -0.60369641       1.76056348      -1.79218148      -0.08141960       0.18644227      -0.12042454
C       -2.76496039       2.46396575      -0.75047611      -0.07358108       0.12350892      -0.10817173
H       -2.71036812       1.71763739      -1.53788732       0.03581394      -0.02494705      -0.02495489
H       -3.80528734       2.62060030      -0.46955700       0.11911318      -0.04494103       0.03012549
H       -2.35422293       3.39906267      -1.14156227      -0.01997611      -0.03364894      -0.00137551
C        2.71360572      -2.21806910      -1.27187573       0.05547777      -0.01788431      -0.06997727
H        2.64650407      -1.31442379      -1.87588444       0.00308828      -0.04658950       0.03086330
H        3.75098284      -2.42156365      -1.01850526      -0.04496937       0.03175454       0.00906711
H        2.30859094      -3.04518678      -1.85989527       0.03102017       0.01124179       0.01691731
C       -0.55897292       1.67039389       0.33197710       0.33732450       0.05005584      -0.51503128
C        1.64927496       1.07143472       1.37263525      -0.21316811       0.01428446       0.01888611
H        2.78833602       0.86446448      -2.24077766      -0.06799025       0.03865392       0.05443706
O       -0.28119942       1.37012408       2.67829180      -0.00063323       0.07312532      -0.01582296
H        0.36554611       1.17827005       3.37032210       0.03381510      -0.08033113      -0.05300831
52
Properties=species:S:1:pos:R:3:forces:R:3 charge=0 spin=1 energy=-37508.98991054801 free_energy=-37508.98991054801 stress="1.347172498703003 -2.2162232398986816 -0.5636022686958313 -2.2162232398986816 -1.1680828332901 -0.005161770619452 -0.5636022686958313 -0.005161770619452 1.9499235153198242" pbc="F F F"
C        1.46444835       1.61483194      -1.09635221      -0.03000229       0.46890053      -0.03617981
O        1.84203045       0.96016338      -2.29115897      -0.11801825       0.02221691       0.07824802
C        0.32727126       1.36286000       1.48800364      -0.10473998       0.16316159      -0.07895791
C        2.27385190       1.07051139       0.07705993       0.05606337       0.04523594      -0.14480123
C       -0.00972306       1.66067400      -0.89672840       0.18762393      -1.07557714       0.33927017
C       -1.67345815      -1.33173759       1.14057972       0.38222998       0.08804598       0.08486864
C       -2.31381297      -1.05657418      -0.11695263      -0.09008864      -0.06404456      -0.16153473
C       -0.06983375      -1.41593857      -1.27875715      -0.08208828       0.99906915       0.71837074
H        0.51781145      -1.23532964      -2.16501291       0.04199776      -0.27838501      -0.18672256
C       -1.54555965      -1.33040033      -1.41327840      -0.02730455      -0.43873408      -0.15745525
C        0.49108024      -1.67687278      -0.08259860      -0.19831771      -0.28616744      -0.16352227
C       -0.35267631      -1.67622256       1.14619976      -0.10747010       0.00094013      -0.24625111
O        0.23597605      -1.97180550       2.30610424       0.07213262       0.02731236       0.01317315
O       -3.47636656      -0.68597679      -0.22968864       0.19853079       0.03874005      -0.10447758
C        1.91966819      -2.08372008      -0.01107532      -0.05662255      -0.11989041       0.17995858
O        2.42921669      -2.38471636       1.06215192       0.03717176       0.08930837      -0.04564551
C       -1.89840207      -2.77776275      -1.83655872      -0.16050947      -0.04781934      -0.02995555
H       -1.37197094      -3.00337693      -2.76558260      -0.09377049      -0.03432669       0.02628081
H       -1.59972438      -3.48915530      -1.06680751      -0.07627303      -0.03660963      -0.01860758
H       -2.97325446      -2.83625535      -1.99993456      -0.06260803      -0.05520042      -0.00463039
C        1.79541516       3.12435711      -1.20093886       0.20928371       0.03390934      -0.02743865
H        1.50677691       3.64398789      -0.28710147       0.08521723       0.03166744      -0.02378403
H        2.86426024       3.23994943      -1.37448496       0.06198620       0.05587938      -0.00709321
H        1.23704684       3.53878477      -2.04156519       0.09546615       0.02559707       0.02266026
C       -2.46685104      -1.16222101       2.39992229      -0.00862441      -0.00785831       0.03688868
H       -1.81729730      -1.17300558       3.27235232      -0.02772868      -0.06210962      -0.04052964
H       -3.00436892      -0.21233890       2.38335103       0.01940517      -0.06867736      -0.06417564
H       -3.20111496      -1.96362460       2.49057303      -0.06828245       0.00090283       0.07405166
O        3.42814492       0.72036286      -0.15109702      -0.26103309       0.02130976      -0.01897743
O       -1.95203975      -0.43457322      -2.42579313       0.08909670      -0.02898526       0.04925023
H       -2.91394433      -0.34617064      -2.30680404       0.14420892      -0.02248870       0.06460159
C       -1.98863833       2.06631759       0.49286398      -0.55430484       0.26117271       1.08437526
O       -2.49465506       2.22080430       1.59256392       0.38506934      -0.21225220      -0.79050893
H        1.18080364      -2.19671744       2.11271222      -0.01226652       0.00961862      -0.02204815
C        2.47750832       0.68934735       2.57821327       0.02019908       0.01946466       0.00328406
H        2.62592761       1.54773491       3.24175598       0.01390731      -0.01905818       0.00717778
H        2.01941670      -0.11740312       3.15872608       0.01280109       0.01513697      -0.02666300
H        3.45906225       0.34669613       2.25476268      -0.05333760       0.01313324      -0.00749613
H       -0.61119908       1.69430920      -1.79046935      -0.06793749       0.32944056      -0.11812185
C       -2.77898158       2.42736385      -0.73807281      -0.06616596       0.13399403      -0.04857988
H       -2.68870443       1.69983476      -1.53362038       0.05473490      -0.11603810      -0.10552900
H       -3.82268460       2.52693057      -0.45210366       0.04456744      -0.02791253       0.04903406
H       -2.42417976       3.38825365      -1.11688246       0.01208976       0.02289144      -0.01972407
C        2.69812412      -2.23630358      -1.28162295       0.04208121       0.00263737      -0.04948492
H        2.65389444      -1.32743804      -1.87756895       0.01527892      -0.01121780       0.00280103
H        3.72803241      -2.47264317      -1.03370728       0.01704874       0.02495998       0.01257158
H        2.26550354      -3.04474947      -1.87373320       0.02448438      -0.01894105       0.00329373
C       -0.55276780       1.66278525       0.33264694       0.16667990       0.05281200      -0.14248998
C        1.65459902       1.06186924       1.37615294      -0.08046836       0.01527075       0.05367507
H        2.80635844       0.85563210      -2.22128373      -0.11948410       0.03374251       0.05060817
O       -0.27472917       1.35379387       2.68024415       0.01451254       0.07796708      -0.02605483
H        0.37470928       1.16487795       3.37039605       0.02357825      -0.09214504      -0.03700259
52
Properties=species:S:1:pos:R:3:forces:R:3 charge=0 spin=1 energy=-37508.90647930411 free_energy=-37508.90647930411 stress="0.3185727596282959 -2.315333366394043 -0.37121060490608215 -2.315333366394043 -1.9756810665130615 0.07397874444723129 -0.37121060490608215 0.07397874444723129 0.691643476486206" pbc="F F F"
C        1.46243653       1.58687520      -1.09453723      -0.06029780       0.55550897      -0.02022208
O        1.85963216       0.94662244      -2.28903721      -0.14786422       0.00733505       0.06015071
C        0.33204846       1.34872981       1.48861237      -0.15442178       0.24155417      -0.10430714
C        2.27624580       1.05278428       0.07861428      -0.05115630       0.04452819      -0.15129662
C       -0.01348785       1.62838471      -0.89405915       0.37274835      -1.24038720      -0.24555700
C       -1.67642816      -1.31794946       1.13402739       0.14458208       0.24281196       0.07581576
C       -2.31295686      -1.03725079      -0.12536937      -0.00642466      -0.10840011      -0.20207512
C       -0.06060319      -1.38493658      -1.27890777      -0.20778798       1.28286946       0.39279091
H        0.53290625      -1.16882647      -2.15692803      -0.01173423      -0.37082294      -0.13935378
C       -1.53649223      -1.30307270      -1.41785090       0.00746423      -0.54951876      -0.16444126
C        0.49137486      -1.65120287      -0.08679852      -0.11184344      -0.46024334       0.23931304
C       -0.36121221      -1.66138656       1.14282170       0.28784898      -0.09129060      -0.32476899
O        0.22917936      -1.96150174       2.30315828       0.01087747       0.04188100      -0.04035322
O       -3.47530616      -0.67210573      -0.24588321       0.13453130       0.06331118      -0.05838945
C        1.91472401      -2.08152523      -0.01540404      -0.16571720      -0.10462491       0.07484743
O        2.41885370      -2.39989659       1.05289146       0.08638613       0.07328064       0.09055297
C       -1.86272089      -2.75823389      -1.83485536      -0.19272651      -0.05420922      -0.03148913
H       -1.32534963      -2.97662936      -2.75866424      -0.09648643      -0.05379781       0.00612518
H       -1.55380725      -3.45718728      -1.05926831      -0.08548538      -0.07564691      -0.00779951
H       -2.93455684      -2.83515567      -2.00470800      -0.09022719      -0.07424032      -0.01225533
C        1.76375982       3.10302293      -1.19180105       0.23468041       0.03654905      -0.03555514
H        1.45486574       3.60942694      -0.27832368       0.10410899       0.06658711      -0.00632481
H        2.82965503       3.24329755      -1.36006731       0.08664506       0.07066990      -0.01421823
H        1.19746022       3.50414612      -2.03281766       0.10435545       0.05565933       0.00355206
C       -2.46867547      -1.12753846       2.39108506       0.00825109      -0.02762994       0.00878959
H       -1.81504744      -1.12521240       3.25983317      -0.03940765      -0.07201425      -0.01163691
H       -3.00353382      -0.17622067       2.36040997       0.01769738      -0.08205061      -0.05980982
H       -3.20264519      -1.92643356       2.49169588      -0.09987311      -0.01295239       0.10657138
O        3.42830576       0.70144665      -0.15163285      -0.15246765       0.01046367      -0.01504856
O       -1.95612808      -0.42512205      -2.43820638       0.09447560       0.01292262       0.04969545
H       -2.91875958      -0.34529668      -2.31414998       0.16381283      -0.01300192       0.05688389
C       -1.97556825       2.07751642       0.50141990      -0.36167118       0.30905378       0.83138591
O       -2.44620363       2.30587331       1.60052167       0.24915601      -0.24193455      -0.58676207
H        1.16973350      -2.19935781       2.10706556      -0.00126664       0.02545182      -0.02376432
C        2.48540475       0.69257053       2.58133912       0.01272318       0.01963301      -0.01503158
H        2.62340841       1.55841750       3.23683782       0.01240213      -0.01624037       0.01996938
H        2.03981003      -0.11562093       3.16861293       0.00346539       0.00047885      -0.02166370
H        3.47046118       0.36140670       2.25857200      -0.03428911       0.00001142      -0.00918265
H       -0.61839579       1.62466317      -1.79094381       0.00037927       0.41114131      -0.01808303
C       -2.78885339       2.39295240      -0.72693712      -0.06319102       0.12136412       0.00231585
H       -2.66243314       1.68603513      -1.53208208       0.06784059      -0.16830117      -0.15154575
H       -3.83316915       2.43208824      -0.43626607      -0.03178797      -0.01682652       0.06145962
H       -2.49269144       3.37704855      -1.09185781       0.03294761       0.08057445      -0.03020856
C        2.68190367      -2.25040041      -1.28991477       0.04667613       0.00883205      -0.04888995
H        2.65978815      -1.33892186      -1.88159259       0.02349592       0.01102135      -0.01428663
H        3.70462662      -2.51765038      -1.04819068       0.05533505       0.01940346       0.01382856
H        2.22237145      -3.04232876      -1.88300265       0.02229255      -0.03470763      -0.00371252
C       -0.54573711       1.64955742       0.32962598      -0.12839575       0.01765236       0.43083847
C        1.65760180       1.04839858       1.37748256       0.01135387       0.02939545       0.08842394
H        2.82409155       0.84818135      -2.20452376      -0.13750002       0.02320305       0.04438552
O       -0.27033884       1.33643047       2.68134293       0.02622923       0.07711617      -0.05633183
H        0.38045278       1.14108848       3.36861155       0.00926139      -0.09142330      -0.03333119
52
Properties=species:S:1:pos:R:3:forces:R:3 charge=0 spin=1 energy=-37508.845414822375 free_energy=-37508.845414822375 stress="-0.43201881647109985 -2.1674301624298096 -0.12539997696876526 -2.1674301624298096 -2.7164175510406494 0.06547600775957108 -0.12539997696876526 0.06547600775957108 -0.4303703010082245" pbc="F F F"
C        1.45986877       1.55798024      -1.09447264      -0.07763405       0.55918723       0.00679256
O        1.87730294       0.93459184      -2.28864999      -0.15574554      -0.01572679       0.02138535
C        0.33392801       1.33232685       1.48841099      -0.12422945       0.28003162      -0.09643085
C        2.27696119       1.03457732       0.07849060      -0.06250021       0.01685053      -0.13512473
C       -0.01727961       1.57391638      -0.89277631       0.50906688      -1.11588490      -0.77802110
C       -1.67698135      -1.30004648       1.12767574      -0.10094696       0.36352149       0.05990314
C       -2.31129630      -1.01554285      -0.13360668      -0.03751351      -0.11743718      -0.21402475
C       -0.05171992      -1.33170167      -1.27237860      -0.30461183       1.26284266      -0.01932416
H        0.54644168      -1.10164022      -2.14703043      -0.05970353      -0.39798996      -0.07535800
C       -1.52778332      -1.27363055      -1.42155517       0.03301420      -0.57595861      -0.14399025
C        0.49241684      -1.62068283      -0.08852506      -0.00137413      -0.57244205       0.60578626
C       -0.36699487      -1.64447285       1.13944562       0.60505468      -0.17051893      -0.33759817
O        0.22278298      -1.95214681       2.30060509      -0.05187489       0.05868571      -0.08791018
O       -3.47498642      -0.65532962      -0.26005998       0.17028329       0.04588972      -0.00841057
C        1.90950533      -2.07601722      -0.01879160      -0.22184181      -0.07973544       0.03961424
O        2.40934487      -2.40899081       1.04606005       0.09661222       0.06431022       0.14100234
C       -1.82494813      -2.73740559      -1.83052949      -0.20692700      -0.05441105      -0.02505522
H       -1.27799029      -2.95081390      -2.74925783      -0.08892169      -0.06179707      -0.00892000
H       -1.50786140      -3.42433527      -1.04853763      -0.08561673      -0.09746550      -0.00049798
H       -2.89413117      -2.83330931      -2.00692836      -0.08946735      -0.08242503      -0.01426304
C        1.73019590       3.08049915      -1.18368074       0.24112521       0.03473502      -0.03729213
H        1.40388888       3.57478428      -0.27040193       0.11228089       0.08673454       0.00421936
H        2.79348664       3.24453845      -1.34665295       0.08359182       0.07420431      -0.01706872
H        1.15811274       3.47043807      -2.02544027       0.10318834       0.07325848      -0.00994605
C       -2.46986043      -1.09442816       2.38207742       0.00792160      -0.04703851      -0.00566334
H       -1.81398549      -1.08171269       3.24862154      -0.05047182      -0.07453119       0.00729535
H       -3.00394652      -0.14258568       2.33920318       0.02448974      -0.09939247      -0.05134868
H       -3.20402750      -1.89149738       2.49104344      -0.11014877      -0.01538795       0.12207427
O        3.42851332       0.68298574      -0.15198578      -0.10751552       0.02002831      -0.00760371
O       -1.96219598      -0.41605394      -2.45044212       0.09643526       0.05428531       0.03762500
H       -2.92435188      -0.34285247      -2.31867421       0.15180880      -0.00023827       0.04877928
C       -1.96116506       2.08724176       0.50762409      -0.17717445       0.29016095       0.52087677
O       -2.39533571       2.38429194       1.60140608       0.11760391      -0.22082262      -0.35877225
H        1.16037656      -2.19829550       2.10344145       0.01210422       0.03363312      -0.02995982
C        2.49141981       0.69200475       2.58225725       0.00840172       0.01919756      -0.02541880
H        2.61938544       1.56389411       3.23149143       0.01030960      -0.01726229       0.02751361
H        2.05755962      -0.11829492       3.17481065      -0.00143313      -0.00912309      -0.01652244
H        3.47968602       0.37204488       2.25933882      -0.02148630      -0.00986806      -0.00830323
H       -0.62446337       1.55633583      -1.79226494       0.06303075       0.42585513       0.07822962
C       -2.79563007       2.36138050      -0.71679033      -0.06593961       0.10511432       0.03399898
H       -2.63495056       1.67567212      -1.53241314       0.06992170      -0.17653416      -0.15917313
H       -3.83794815       2.33956455      -0.42099572      -0.07867743      -0.01308441       0.06216794
H       -2.55846587       3.36573665      -1.06677711       0.03728214       0.11423638      -0.03076559
C        2.66533110      -2.26159254      -1.29692077       0.05645176       0.00472567      -0.05699055
H        2.66427466      -1.34905371      -1.88655231       0.02718288       0.02242968      -0.02354441
H        3.68122317      -2.55750923      -1.06162945       0.07127389       0.01609272       0.01415137
H        2.18044298      -3.03859688      -1.88940064       0.02344251      -0.03922335      -0.00537542
C       -0.54009467       1.62738391       0.32556788      -0.41257909      -0.01462061       0.94138944
C        1.65869765       1.03268956       1.37753890       0.06617247       0.05184578       0.10894486
H        2.84115090       0.84166604      -2.19002858      -0.13131794       0.01102767       0.03750479
O       -0.26755580       1.31926889       2.68250883       0.03380836       0.07000794      -0.09031028
H        0.38365187       1.11272528       3.36653173      -0.00620623      -0.07997268      -0.04026715
52
Properties=species:S:1:pos:R:3:forces:R:3 charge=0 spin=1 energy=-37508.812914793765 free_energy=-37508.812914793765 stress="-0.9375660419464111 -1.799522042274475 0.09460975974798203 -1.799522042274475 -3.3349990844726562 0.0008114294032566249 0.09460975974798203 0.0008114294032566249 -1.0669971704483032" pbc="F F F"
C        1.45667120       1.53007907      -1.09542712      -0.06704303       0.45761883       0.02203527
O        1.89462101       0.92499944      -2.28965436      -0.13487920      -0.03621476      -0.02104248
C        0.33301220       1.31375329       1.48828458      -0.04014964       0.26825324      -0.05410583
C        2.27655200       1.01674015       0.07725482      -0.03148431      -0.01511548      -0.08348635
C       -0.02034986       1.49723061      -0.89351805       0.52768916      -0.67812979      -0.93136877
C       -1.67353265      -1.27271477       1.12103014      -0.25372529       0.38697353       0.02777367
C       -2.30919440      -0.99280401      -0.14243422      -0.09148902      -0.10699589      -0.17248268