40
Properties=species:S:1:pos:R:3:forces:R:3 charge=1 spin=1 energy=-15953.761532384959 free_energy=-15953.761532384959 stress="2.101149082183838 -0.13192439079284668 -0.024471284821629524 -0.13192439079284668 2.584477424621582 -0.139760822057724 -0.024471284821629524 -0.139760822057724 2.229980945587158" pbc="F F F"
C       -1.96149975       0.85693003      -0.67600960      -0.01602331       0.01691215       0.01577546
C       -1.17999370       1.98109696      -0.03682923      -0.01451073       0.01159796       0.02410585
C        0.44071482       2.00939997       0.18368280       0.22920667      -0.16747724      -0.02185947
C       -1.85636692      -0.61510125      -0.23246380       0.01572940       0.06006706       0.01938921
C        1.07378288       0.77438779       0.04417200      -0.07356527       0.12039205      -0.01911184
C       -0.42901265      -1.16698776      -0.36881114       0.02373865      -0.03983698      -0.00797639
C        0.64723613      -0.55861233       0.57078078      -0.01723969       0.06633680       0.00766618
C        1.97959211      -1.36338964       0.58633645      -0.03014982      -0.00870600      -0.02049015
C        2.71067314      -0.85391719      -0.66211475      -0.02861019       0.01895233       0.00285160
C        2.38170696       0.64210312      -0.66598102      -0.02395867      -0.04051961       0.03892485
C        1.84803779      -2.87795438       0.67754899       0.00830421       0.02323911      -0.00280545
C        1.12724221       3.27246710      -0.29166842      -0.04853263      -0.03919713       0.00990356
C       -0.65293285       2.13867948       1.30014103      -0.01185802       0.01873015      -0.06202748
C       -2.73451960      -1.41443216      -1.21136411      -0.01714582      -0.01107601       0.00670120
C       -2.42144962      -0.83718884       1.17822233      -0.00536191      -0.01609423       0.00163756
H       -3.01113169       1.16303448      -0.55792123       0.10833986      -0.04781415      -0.04621836
H       -1.38027661       2.92271095      -0.54628364       0.01684282      -0.10285337       0.09241822
H       -0.10465161      -1.08765924      -1.41556476      -0.04326743      -0.01885518       0.12178730
H       -1.76147231       0.91128762      -1.75371887      -0.02847806      -0.01344824       0.10811644
H       -0.46657206      -2.23587754      -0.13592017       0.00382576       0.12052216      -0.05040202
H        0.21752864      -0.48530776       1.57452117       0.05196786       0.01546925      -0.11432801
H        2.53842615      -1.01537403       1.46649273      -0.05994735      -0.01793130      -0.09139881
H        3.78458352      -1.04587009      -0.63076579      -0.11202318       0.01798751      -0.01000727
H        2.31448296      -1.33843001      -1.56138029       0.04381400       0.05523882       0.10272092
H        3.11365155       1.21211773      -0.06830895      -0.08005175      -0.03205507      -0.06151071
H        2.36546103       1.13362596      -1.64580625      -0.00160682      -0.04532264       0.11704068
H        1.43538837      -3.30752069      -0.23952602       0.03379345       0.04219148       0.09573065
H        2.83314732      -3.32456651       0.83317472      -0.09438860       0.03800062      -0.01520925
H        1.21357310      -3.17726141       1.51765241       0.06485006       0.02641789      -0.08606247
H        1.31179121       3.25016034      -1.36934133       0.00025699       0.00263793       0.10754271
H        2.08377728       3.41244063       0.22021922      -0.08274911      -0.01296400      -0.05554835
H        0.50858878       4.14661090      -0.07843405       0.05396316      -0.09002697      -0.01585285
H       -0.69454258       1.32344673       2.00952683      -0.00144181       0.09280121      -0.09474443
H       -0.64287115       3.13197592       1.73829560      -0.01707923      -0.12390316      -0.05171559
H       -3.76693852      -1.05162315      -1.19019522       0.11324383      -0.03783547       0.00060328
H       -2.36698768      -1.33155527      -2.23941173      -0.03047607      -0.00229467       0.10813197
H       -2.74796300      -2.47402552      -0.93961224       0.01181104       0.10362683      -0.02602674
H       -1.89537099      -0.29440989       1.96595957      -0.04449345      -0.05450604      -0.08477300
H       -3.46937168      -0.52432612       1.21675275       0.11097887      -0.03449840      -0.01347930
H       -2.38546098      -1.90108498       1.43395322      -0.00770761       0.10609414      -0.02949966
40
Properties=species:S:1:pos:R:3:forces:R:3 charge=1 spin=1 energy=-15953.595464784701 free_energy=-15953.595464784701 stress="2.077533006668091 0.2867145538330078 -0.3719461262226105 0.2867145538330078 0.10762658715248108 -0.16912904381752014 -0.3719461262226105 -0.16912904381752014 2.379077672958374" pbc="F F F"
C       -1.94102520       0.84359743      -0.68313244      -0.79984325      -0.70165211      -0.41140577
C       -1.21107984       1.95601894      -0.07789434       1.97087085       1.02274954       1.98858213
C        0.50335360       2.02061396       0.24231150      -0.54856193      -0.58368999       0.45908219
C       -1.85898743      -0.63188224      -0.22811539       0.07798252       0.12619774       0.00865498
C        1.10108395       0.77538944       0.06124304      -0.98185956       0.77785045      -0.29641950
C       -0.43369544      -1.17561500      -0.36574951       0.06812926       0.01745659       0.02742064
C        0.63296967      -0.54739988       0.56338626       0.19597685      -0.15188919       0.12712252
C        1.96643208      -1.34737978       0.57612661       0.03854046      -0.05607988      -0.00592677
C        2.69011006      -0.84922779      -0.68300268       0.04113944      -0.06792239       0.04612569
C        2.36640866       0.64124538      -0.70037507       0.08819539      -0.03593590      -0.04667727
C        1.84579355      -2.85818167       0.67701507       0.01406054      -0.01933737       0.00890597
C        1.18873777       3.27926622      -0.22561664      -0.31378117      -0.08650866      -0.13991930
C       -0.66559299       2.13633199       1.30072863      -0.08097561       0.15102853      -2.68388748
C       -2.74190454      -1.42869151      -1.20407517       0.01258258       0.03576947       0.00880416
C       -2.42486498      -0.84810028       1.18169714       0.00810903       0.02575603      -0.01740496
H       -2.99051787       1.15533383      -0.54004213       0.08128191      -0.07065344      -0.19812576
H       -1.31990837       2.92328510      -0.57693207      -0.18811598      -0.39863309      -0.03900727
H       -0.11343806      -1.10128654      -1.41254313      -0.03181716      -0.01297991       0.07733303
H       -1.76179687       0.87413926      -1.76142769      -0.08194534       0.01905047      -0.03118334
H       -0.46306543      -2.24134487      -0.12418555       0.00070494       0.07787294      -0.03792629
H        0.20890463      -0.47238898       1.56920979       0.06519124      -0.00032888      -0.09453543
H        2.52814900      -0.98671958       1.44845524      -0.02604070      -0.03027675      -0.07216028
H        3.76282702      -1.02957119      -0.64800757      -0.01628325      -0.08153552      -0.02935485
H        2.29428681      -1.34901794      -1.57225238       0.03975211       0.05034328       0.06282840
H        3.10272558       1.22473924      -0.13429587       0.18136999       0.00817513      -0.02774545
H        2.31901012       1.12058811      -1.68885796      -0.04773450      -0.10030433       0.21635529
H        1.43454078      -3.29478644      -0.23581760       0.01815472       0.01853490       0.06197182
H        2.83404457      -3.29349288       0.83012898      -0.03460829      -0.01110187      -0.00319072
H        1.21797009      -3.15933314       1.51939803       0.03429390       0.01348260      -0.04359164
H        1.36679977       3.24295300      -1.30325549       0.05270448       0.10066446       0.08778257
H        2.14209173       3.43598204       0.28200940      -0.03650736      -0.05979604       0.01950608
H        0.55265463       4.13731958      -0.01402732       0.08167187       0.08642186      -0.04677106
H       -0.72499422       1.34904833       2.00546385      -0.06995849      -0.45179018       0.54530108
H       -0.74182903       3.14635361       1.64403173       0.06733845       0.29405147       0.49526802
H       -3.76995319      -1.05703396      -1.19309890       0.07002930      -0.01789226       0.01214725
H       -2.36811825      -1.35825146      -2.22932524      -0.01810871      -0.00180389       0.06265455
H       -2.76736411      -2.48500225      -0.92418940       0.02410574       0.08350180      -0.01296361
H       -1.89695100      -0.30461834       1.96559034      -0.02435602      -0.03685031      -0.03733107
H       -3.47069231      -0.53241453       1.21821101       0.06524645      -0.02153331      -0.00390976
H       -2.39311493      -1.91046521       1.44121293       0.00306536       0.08958884      -0.03640863
40
Properties=species:S:1:pos:R:3:forces:R:3 charge=1 spin=1 energy=-15953.469684440692 free_energy=-15953.469684440692 stress="1.5132049322128296 0.6792158484458923 -0.6045558452606201 0.6792158484458923 -1.0161504745483398 -0.3678221106529236 -0.6045558452606201 -0.3678221106529236 1.2477753162384033" pbc="F F F"
C       -1.92456535       0.82749853      -0.69066284      -0.95057869      -0.75561327      -0.49674910
C       -1.19681777       1.93988907      -0.10360836       2.03494358       1.00319684       1.94050694
C        0.55382446       2.03174217       0.30602854      -0.80798757      -0.68206018       0.45109969
C       -1.86101637      -0.64598664      -0.22372850       0.09162623       0.12475827       0.00979499
C        1.10408831       0.78171568       0.06915580      -1.17324698       0.87338537      -0.35206234
C       -0.43785177      -1.18606392      -0.35885478       0.08606716       0.03640262       0.04002658
C        0.61981412      -0.53999550       0.56037092       0.29314050      -0.20533535       0.13967276
C        1.95809012      -1.33086460       0.56672510       0.05282423      -0.08194142       0.00160559
C        2.66697826      -0.84283597      -0.70460128       0.07772739      -0.09653485       0.05309398
C        2.33918966       0.64388035      -0.73644926       0.15337186      -0.04907107      -0.02714213
C        1.84840685      -2.83987646       0.67870377       0.02223962      -0.03186449       0.01636318
C        1.24124450       3.28439318      -0.15784318      -0.36466813      -0.03077304      -0.20935167
C       -0.67890466       2.13688248       1.27854969       0.15480913       0.22851646      -2.83516407
C       -2.74782328      -1.44016151      -1.19746766       0.02697420       0.05610991       0.01152421
C       -2.42912512      -0.85570663       1.18559763       0.01179425       0.05237359      -0.03098202
H       -2.97125511       1.15195443      -0.52892815       0.11934437      -0.05326474      -0.26054746
H       -1.25118151       2.90878532      -0.61478428      -0.26908565      -0.54266453      -0.11283022
H       -0.11982668      -1.11768536      -1.40600912      -0.02502857      -0.01716980       0.05406089
H       -1.76027278       0.84002705      -1.77019407      -0.10682112       0.05173544      -0.07310829
H       -0.46170993      -2.24858016      -0.10780683      -0.00653629       0.04154030      -0.03545503
H        0.20453268      -0.46449453       1.56912548       0.05730996      -0.01219698      -0.07129076
H        2.52526308      -0.95815350       1.42942395      -0.00334979      -0.03285128      -0.05170842
H        3.74020223      -1.01234312      -0.67274197       0.02953572      -0.12395850      -0.03835715
H        2.26996786      -1.35862566      -1.58268892       0.03041036       0.04159064       0.03321042
H        3.08586146       1.23785906      -0.20272890       0.30107775       0.03219961      -0.03366521
H        2.26170748       1.10505811      -1.73176742      -0.07970025      -0.10442701       0.22704999
H        1.43714785      -3.28418457      -0.22933308       0.00749036       0.00205983       0.04033025
H        2.83992732      -3.26545027       0.82926231       0.00225649      -0.03774405       0.00443884
H        1.22720462      -3.14078749       1.52458987       0.01389025       0.00235099      -0.01220219
H        1.42211033       3.23927899      -1.23514471       0.06511506       0.15764353       0.10761310
H        2.19321514       3.44759717       0.35128865      -0.06497464      -0.08481945       0.03589653
H        0.59552643       4.13461921       0.05235569       0.12750119       0.16796240      -0.07526965
H       -0.76314207       1.36571213       1.99285873      -0.15080772      -0.49177378       0.70756590
H       -0.83169766       3.15429428       1.55168933       0.14620589       0.46826002       0.85059631
H       -3.77213753      -1.06035345      -1.19352676       0.04237917      -0.00940977       0.01635830
H       -2.36897986      -1.37810185      -2.22039292      -0.01154826      -0.00517573       0.03046748
H       -2.78309445      -2.49415499      -0.91241542       0.02939924       0.06877006      -0.00389607
H       -1.89839503      -0.31485644       1.96812292      -0.01066143      -0.02407118      -0.01155791
H       -3.47263378      -0.53474865       1.22053125       0.03832700      -0.01271860       0.00126032
H       -2.40387205      -1.91717594       1.44729876       0.00923439       0.07658311      -0.04119633
40
Properties=species:S:1:pos:R:3:forces:R:3 charge=1 spin=1 energy=-15953.445419389811 free_energy=-15953.445419389811 stress="1.0543547868728638 1.008768916130066 -0.6796041131019592 1.008768916130066 -1.2442376613616943 -0.6997753977775574 -0.6796041131019592 -0.6997753977775574 -0.4287019670009613" pbc="F F F"
C       -1.91099008       0.81005788      -0.69819563      -0.70329893      -0.34930700      -0.33892113
C       -1.14755967       1.92619639      -0.12222023       1.19075882       0.27216184       0.75182199
C        0.59345833       2.04232273       0.37155083      -0.89085698      -0.56053793       0.15286358
C       -1.86283633      -0.65792468      -0.21959271       0.08176485       0.09440263       0.01043426
C        1.08782319       0.79164747       0.06869675      -0.86677337       0.59424657      -0.29752588
C       -0.44191883      -1.19829855      -0.34882639       0.07547055       0.02271175       0.03318788
C        0.60767294      -0.53563765       0.56033125       0.29940325      -0.15131617       0.08951420
C        1.95322812      -1.31401366       0.55791737       0.03837371      -0.08409682       0.00143224
C        2.64219861      -0.83488686      -0.72642808       0.09048038      -0.08412115       0.03724678
C        2.30370725       0.64927904      -0.77306193       0.17232743      -0.07043526       0.06393632
C        1.85502749      -2.82264318       0.68194449       0.02920910      -0.02338084       0.01958047
C        1.28499342       3.28854853      -0.09013513      -0.28749833       0.07215257      -0.21440269
C       -0.69058485       2.13993784       1.24369651       0.38640636       0.22671996      -1.51172054
C       -2.75285720      -1.44935294      -1.19168987       0.03243603       0.05513291       0.01690898
C       -2.43433298      -0.86023625       1.18943963       0.00988362       0.06289661      -0.04102045
H       -2.95148380       1.15343052      -0.52169042       0.20132670      -0.02442571      -0.26644161
H       -1.17431009       2.87997767      -0.66068143      -0.25492075      -0.51751208      -0.17088920
H       -0.12456894      -1.13768465      -1.39644327      -0.02032119      -0.02563292       0.04463919
H       -1.75931717       0.80926711      -1.77954122      -0.10376937       0.07369299      -0.05525061
H       -0.46283709      -2.25734715      -0.08706498      -0.01273312       0.01025579      -0.03597897
H        0.20333262      -0.46012960       1.57261985       0.03678473      -0.01750739      -0.04908958
H        2.52748504      -0.92968118       1.40981243       0.00978282      -0.02906767      -0.03242856
H        3.71705000      -0.99432533      -0.70268996       0.03724244      -0.12443191      -0.04095382
H        2.24288017      -1.36677024      -1.59275232       0.01811249       0.03338040       0.01424891
H        3.06395824       1.25118090      -0.27013075       0.29512766       0.03870674      -0.06023863
H        2.19891264       1.08876027      -1.77381357      -0.10234625      -0.07690141       0.18890822
H        1.44267635      -3.27545667      -0.22068955       0.00020241      -0.00741963       0.02802202
H        2.84999035      -3.23946455       0.82970591       0.02273816      -0.04658848       0.00895402
H        1.24074984      -3.12203806       1.53238754       0.00127874      -0.00595791       0.00980895
H        1.47745980       3.23838644      -1.16597750       0.05011873       0.18118669       0.14129758
H        2.23512156       3.45125210       0.42655237      -0.12857953      -0.09437498       0.02170363
H        0.63492304       4.13691536       0.11691163       0.17573768       0.18427059      -0.09688718
H       -0.80650999       1.37492002       1.97267486      -0.19870390      -0.20834149       0.51686561
H       -0.90995056       3.15798514       1.46848077       0.23419411       0.49742463       1.07408369
H       -3.77394215      -1.06201502      -1.19246960       0.02708649      -0.00722911       0.01654921
H       -2.36985782      -1.39283527      -2.21268545      -0.00881766      -0.01007698       0.00765500
H       -2.79630967      -2.50172552      -0.90361657       0.02870563       0.05529832       0.00249233
H       -1.89957724      -0.32490035       1.97233187      -0.00221691      -0.01326228      -0.00017560
H       -3.47504651      -0.53150732       1.22319697       0.02522315      -0.00574084       0.00277536
H       -2.41785804      -1.92119073       1.45214552       0.01066045       0.06302508      -0.04300578
40
Properties=species:S:1:pos:R:3:forces:R:3 charge=1 spin=1 energy=-15953.390421230395 free_energy=-15953.390421230395 stress="0.850755512714386 1.145559310913086 -0.5938884019851685 1.145559310913086 -1.088711142539978 -1.1688402891159058 -0.5938884019851685 -1.1688402891159058 -2.237368583679199" pbc="F F F"
C       -1.89916929       0.79270002      -0.70532564      -0.28917205       0.11606906      -0.15247561
C       -1.07365773       1.90842995      -0.14197891       0.06184983      -0.60126495      -0.87327951
C        0.62358615       2.05189377       0.43559527      -0.82903224      -0.34568521      -0.21682012
C       -1.86482987      -0.66820661      -0.21599757       0.06137003       0.05286224       0.00772581
C        1.05731586       0.80346579       0.06065236      -0.30914474       0.16929555      -0.18222857
C       -0.44633382      -1.21228292      -0.33636381       0.04642165      -0.00869144       0.01690779
C        0.59644959      -0.53356479       0.56186377       0.22491477      -0.05191300       0.01230966
C        1.95050796      -1.29699653       0.54948892       0.01404649      -0.06341960      -0.00553826
C        2.61669201      -0.82552558      -0.74800064       0.08650077      -0.05069562       0.00797742
C        2.26361871       0.65671246      -0.80907144       0.15811847      -0.08447596       0.16251351
C        1.86480527      -2.80608624       0.68606659       0.03233233      -0.00442362       0.02001371
C        1.32021554       3.29243281      -0.02427956      -0.14784823       0.18023852      -0.17115173
C       -0.69835054       2.14510495       1.20626139       0.47446209       0.24010442       0.45558763
C       -2.75758769      -1.45677661      -1.18689011       0.03199977       0.03977758       0.02367773
C       -2.44059149      -0.86191752       1.19273894       0.00631271       0.06196252      -0.04662474
H       -2.92934437       1.16029634      -0.51544005       0.28748158       0.00771862      -0.23211734
H       -1.08950815       2.83762819      -0.71546467      -0.16736040      -0.40443692      -0.21966210
H       -0.12841630      -1.16211343      -1.38432607      -0.01573678      -0.03399068       0.04012850
H       -1.76134714       0.78217553      -1.78899237      -0.08331358       0.07512987      -0.01324397
H       -0.46677847      -2.26740955      -0.06224098      -0.01755785      -0.01761557      -0.03602209
H        0.20422427      -0.45779938       1.57804449       0.01412763      -0.01638678      -0.03172988
H        2.53253151      -0.90130807       1.39003423       0.01545104      -0.02158075      -0.01614879
H        3.69371120      -0.97565727      -0.73557255       0.02139350      -0.09932666      -0.03988943
H        2.21437779      -1.37296876      -1.60250495       0.00472952       0.02745153       0.00481321
H        3.03791492       1.26440849      -0.33302414       0.19928473       0.02983363      -0.08994847
H        2.13598514       1.07341891      -1.81427535      -0.11451985      -0.03916514       0.13013020
H        1.45059305      -3.26834432      -0.21050410      -0.00523481      -0.00983972       0.02179088
H        2.86342844      -3.21456156       0.83059099       0.03317390      -0.04274010       0.01121055
H        1.25807889      -3.10349843       1.54195061      -0.00581525      -0.01071539       0.02411507
H        1.53258508       3.23952349      -1.09672233       0.01853799       0.17678048       0.16960590
H        2.26578506       3.45091289       0.50629597      -0.19071868      -0.09083787      -0.00242226
H        0.66856331       4.14261362       0.17583715       0.21414933       0.15976496      -0.10890739
H       -0.85262184       1.37815391       1.94587566      -0.19476558       0.16158167       0.19603042
H       -0.97406126       3.15961344       1.40161838       0.29850137       0.43488887       1.15712452
H       -3.77581764      -1.06245210      -1.19091823       0.01998852      -0.00795242       0.01434310
H       -2.37103744      -1.40418056      -2.20627351      -0.00846042      -0.01477857      -0.00794229
H       -2.80816543      -2.50795563      -0.89711916       0.02375033       0.04203876       0.00767200
H       -1.90037179      -0.33452620       1.97699172       0.00170991      -0.00308647       0.00226091
H       -3.47778093      -0.52286934       1.22569165       0.02019891       0.00067866       0.00240314
H       -2.43519858      -1.92248314       1.45568802       0.00787337       0.04684535      -0.04218928
40
Properties=species:S:1:pos:R:3:forces:R:3 charge=1 spin=1 energy=-15953.307307321627 free_energy=-15953.307307321627 stress="0.9372633099555969 0.9860906004905701 -0.2990081310272217 0.9860906004905701 -0.7879798412322998 -1.565991997718811 -0.2990081310272217 -1.565991997718811 -3.2806522846221924" pbc="F F F"
C       -1.88797288       0.77684949      -0.71164769       0.11345903       0.35566291      -0.08570078
C       -0.98546414       1.88007879      -0.17113335      -0.79084980      -1.09427488      -1.89281499
C        0.64553884       2.05999340       0.49487880      -0.61884874      -0.15317418      -0.47039589
C       -1.86737958      -0.67734268      -0.21323265       0.03822526       0.01497808       0.00175561
C        1.01759356       0.81545162       0.04580910       0.23556276      -0.17669387      -0.01403323
C       -0.45153393      -1.22798106      -0.32216649       0.00984138      -0.03913726      -0.00065858
C        0.58604752      -0.53301537       0.56356499       0.09421620       0.03683116      -0.05822852
C        1.94859156      -1.27998275       0.54122522      -0.00649292      -0.02590811      -0.01789835
C        2.59137932      -0.81489725      -0.76883651       0.07090914      -0.01639333      -0.02356386
C        2.22258132       0.66545163      -0.84333617       0.11609893      -0.07438903       0.19879250
C        1.87688998      -2.78981008       0.69039947       0.03060675       0.01412007       0.01979790
C        1.34714189       3.29674656       0.03793645      -0.01006607       0.25523344      -0.09806301
C       -0.69991871       2.15199068       1.17633665       0.28281611       0.26854351       1.84752417
C       -2.76259613      -1.46294332      -1.18321665       0.02806148       0.01832976       0.02893511
C       -2.44800359      -0.86097881       1.19501138       0.00414387       0.05474235      -0.04639272
H       -2.90297722       1.17308612      -0.50728818       0.34090471       0.04407587      -0.16631787
H       -0.99698974       2.78250292      -0.77997516      -0.04042095      -0.29259294      -0.24650912
H       -0.13212022      -1.19180066      -1.37013806      -0.00985964      -0.03917996       0.03202675
H       -1.76877981       0.75906841      -1.79807071      -0.05731767       0.05235871       0.02770776
H       -0.47386560      -2.27853108      -0.03361582      -0.02064810      -0.04252237      -0.03290655
H        0.20612745      -0.45600908       1.58375100      -0.00204988      -0.01060839      -0.02284588
H        2.53811913      -0.87303957       1.37050292       0.01574552      -0.01241813      -0.00391052
H        3.67052668      -0.95647838      -0.76911073      -0.00229979      -0.06373823      -0.03710857
H        2.18581476      -1.37673826      -1.61200921      -0.00861935       0.02427638       0.00189655
H        3.00863053       1.27724554      -0.38793180       0.06192506       0.01195741      -0.11014499
H        2.07828451       1.06075831      -1.85243172      -0.11287308      -0.01015664       0.07134154
H        1.46036473      -3.26258912      -0.19939383      -0.01013372      -0.00569308       0.01817881
H        2.87943637      -3.18976717       0.83104876       0.03928011      -0.03182652       0.01167228
H        1.27866492      -3.08558220       1.55243866      -0.00969306      -0.01125320       0.03252293
H        1.58722309       3.24193829      -1.02834771      -0.01661416       0.15004572       0.17916709
H        2.28317970       3.45054561       0.58901483      -0.22054598      -0.07713250      -0.02003130
H        0.69416612       4.15011957       0.22532891       0.23401918       0.11532269      -0.10843651
H       -0.89900147       1.37689568       1.91342455      -0.14259687       0.44013619      -0.04842266
H       -1.02150328       3.16136640       1.35831452       0.31888020       0.27689284       1.06297076
H       -3.77821459      -1.06209810      -1.18986346       0.01706547      -0.00894919       0.01074437
H       -2.37280404      -1.41386653      -2.20122779      -0.00960175      -0.01795849      -0.01756429
H       -2.81981738      -2.51308710      -0.89224945       0.01649005       0.02916197       0.01290491
H       -1.90065281      -0.34351016       1.98087702       0.00200189       0.00698187       0.00098400
H       -3.48068747      -0.50901356       1.22749880       0.01766236       0.00736421       0.00203441
H       -2.45601936      -1.92102671       1.45786108       0.00161620       0.02698531      -0.03900870
40
Properties=species:S:1:pos:R:3:forces:R:3 charge=1 spin=1 energy=-15953.300762254794 free_energy=-15953.300762254794 stress="1.137655258178711 0.5725714564323425 0.04969373345375061 0.5725714564323425 -0.3691062331199646 -1.4402306079864502 0.04969373345375061 -1.4402306079864502 -2.4844181537628174" pbc="F F F"
C       -1.87637400       0.76381038      -0.71680784       0.35318017       0.26750311      -0.17441228
C       -0.89282785       1.83545436      -0.21702822      -1.05513060      -0.80255836      -1.31164622
C        0.66047199       2.06627697       0.54627038      -0.33683312      -0.06615283      -0.52777690
C       -1.87081576      -0.68579319      -0.21156216       0.01872629      -0.00494423      -0.00675327
C        0.97348694       0.82595186       0.02499723       0.56542581      -0.29963204       0.18687856
C       -0.45789881      -1.24531527      -0.30694085      -0.02488443      -0.05334273      -0.01421475
C        0.57638505      -0.53329360       0.56414015      -0.04071059       0.07709710      -0.09220643
C        1.94626682      -1.26318213       0.53295578      -0.01257593       0.01439907      -0.03428747
C        2.56718649      -0.80318403      -0.78843990       0.04753900       0.00252268      -0.04202539
C        2.18406650       0.67479783      -0.87472510       0.04980867      -0.02914572       0.14945799
C        1.89044603      -2.77350603       0.69431428       0.02606842       0.02153415       0.02157022
C        1.36598525       3.30214765       0.09474578       0.05685045       0.25965297      -0.02363191
C       -0.69328281       2.16018880       1.16314353      -0.11373398       0.16717410       1.51170778
C       -2.76840271      -1.46831144      -1.18080227       0.02333300       0.00064051       0.02989212
C       -2.45662983      -0.85767679       1.19582078       0.00476080       0.04576919      -0.04228687
H       -2.87074286       1.19217727      -0.49458731       0.33817238       0.08169632      -0.08301851
H       -0.89723836       2.71554821      -0.85481506       0.07158326      -0.23301876      -0.23287563
H       -0.13637053      -1.22738181      -1.35438972      -0.00261753      -0.03914453       0.01532576
H       -1.78378684       0.74025269      -1.80630271      -0.03188347       0.01098147       0.05653207
H       -0.48435224      -2.29046455      -0.00157028      -0.02076904      -0.06252991      -0.02450323
H        0.20803263      -0.45340229       1.58820422      -0.00811135      -0.00382233      -0.02360985
H        2.54214568      -0.84495988       1.35165955       0.01424368      -0.00378704       0.00429730
H        3.64789410      -0.93697747      -0.80111876      -0.01675086      -0.03204450      -0.03450485
H        2.15851664      -1.37765895      -1.62129730      -0.02152002       0.02312590       0.00074229