40
Properties=species:S:1:pos:R:3:forces:R:3 IM6b=T energy=2.1022812962784274e-29 pbc="F F F"
C       -1.96149975       0.85693003      -0.67600960      -0.00000000       0.00000000      -0.00000000
C       -1.17999370       1.98109696      -0.03682923      -0.00000000      -0.00000000      -0.00000000
C        0.44071482       2.00939997       0.18368280      -0.00000000      -0.00000000       0.00000000
C       -1.85636692      -0.61510125      -0.23246380       0.00000000      -0.00000000      -0.00000000
C        1.07378288       0.77438779       0.04417200       0.00000000       0.00000000       0.00000000
C       -0.42901265      -1.16698776      -0.36881114       0.00000000       0.00000000      -0.00000000
C        0.64723613      -0.55861233       0.57078078       0.00000000       0.00000000       0.00000000
C        1.97959211      -1.36338964       0.58633645      -0.00000000       0.00000000       0.00000000
C        2.71067314      -0.85391719      -0.66211475       0.00000000       0.00000000      -0.00000000
C        2.38170696       0.64210312      -0.66598102       0.00000000       0.00000000      -0.00000000
C        1.84803779      -2.87795438       0.67754899      -0.00000000      -0.00000000       0.00000000
C        1.12724221       3.27246710      -0.29166842       0.00000000       0.00000000       0.00000000
C       -0.65293285       2.13867948       1.30014103       0.00000000       0.00000000       0.00000000
C       -2.73451960      -1.41443216      -1.21136411       0.00000000       0.00000000      -0.00000000
C       -2.42144962      -0.83718884       1.17822233      -0.00000000       0.00000000       0.00000000
H       -3.01113169       1.16303448      -0.55792123       0.00000000      -0.00000000      -0.00000000
H       -1.38027661       2.92271095      -0.54628364      -0.00000000      -0.00000000      -0.00000000
H       -0.10465161      -1.08765924      -1.41556476       0.00000000       0.00000000       0.00000000
H       -1.76147231       0.91128762      -1.75371887       0.00000000       0.00000000       0.00000000
H       -0.46657206      -2.23587754      -0.13592017      -0.00000000      -0.00000000       0.00000000
H        0.21752864      -0.48530776       1.57452117       0.00000000       0.00000000       0.00000000
H        2.53842615      -1.01537403       1.46649273       0.00000000       0.00000000       0.00000000
H        3.78458352      -1.04587009      -0.63076579       0.00000000       0.00000000      -0.00000000
H        2.31448296      -1.33843001      -1.56138029       0.00000000       0.00000000      -0.00000000
H        3.11365155       1.21211773      -0.06830895       0.00000000       0.00000000       0.00000000
H        2.36546103       1.13362596      -1.64580625       0.00000000       0.00000000       0.00000000
H        1.43538837      -3.30752069      -0.23952602      -0.00000000      -0.00000000       0.00000000
H        2.83314732      -3.32456651       0.83317472       0.00000000      -0.00000000      -0.00000000
H        1.21357310      -3.17726141       1.51765241       0.00000000       0.00000000      -0.00000000
H        1.31179121       3.25016034      -1.36934133      -0.00000000       0.00000000       0.00000000
H        2.08377728       3.41244063       0.22021922       0.00000000       0.00000000       0.00000000
H        0.50858878       4.14661090      -0.07843405       0.00000000       0.00000000      -0.00000000
H       -0.69454258       1.32344673       2.00952683       0.00000000       0.00000000      -0.00000000
H       -0.64287115       3.13197592       1.73829560       0.00000000       0.00000000       0.00000000
H       -3.76693852      -1.05162315      -1.19019522      -0.00000000       0.00000000      -0.00000000
H       -2.36698768      -1.33155527      -2.23941173       0.00000000       0.00000000      -0.00000000
H       -2.74796300      -2.47402552      -0.93961224       0.00000000      -0.00000000       0.00000000
H       -1.89537099      -0.29440989       1.96595957       0.00000000       0.00000000       0.00000000
H       -3.46937168      -0.52432612       1.21675275       0.00000000       0.00000000       0.00000000
H       -2.38546098      -1.90108498       1.43395322       0.00000000       0.00000000       0.00000000
40
Properties=species:S:1:pos:R:3:forces:R:3 IM6b=T energy=0.0172456687176172 pbc="F F F"
C       -1.95194400       0.84832277      -0.68182587      -0.22392540       0.11982303      -0.13398435
C       -1.13471463       1.99197046      -0.14244339      -0.01111212      -0.05641213      -0.01480949
C        0.44463527       2.07153796       0.21769356      -0.20073997       0.01338667      -0.04537358
C       -1.86472998      -0.63109146      -0.24217592       0.03243441       0.04785967      -0.03285484
C        1.04918408       0.75833256       0.01290188      -0.00418802      -0.01354943       0.00561552
C       -0.43883666      -1.19714921      -0.36556164       0.00532329      -0.00185769       0.01197190
C        0.63841734      -0.57061552       0.56368008      -0.00913223       0.00534385       0.00556651
C        1.97719001      -1.36289522       0.58578921      -0.00006305      -0.00609431       0.00281156
C        2.70836992      -0.85456255      -0.66298531       0.00086063      -0.01329507       0.00721040
C        2.36853412       0.64560719      -0.67786253       0.01329871      -0.01210755      -0.00733390
C        1.85966303      -2.87895958       0.67733415       0.00309498       0.00319717       0.00169940
C        1.14714924       3.32722806      -0.24914198      -0.08883602       0.07153690      -0.11597118
C       -0.60978554       2.16178781       1.34640365       0.00317161       0.02528024       0.00474491
C       -2.75067370      -1.43322529      -1.21300867      -0.01477310      -0.03294949       0.00475553
C       -2.43075944      -0.84654973       1.17067560       0.00475348       0.03542956       0.03463607
H       -2.99938598       1.16198188      -0.49380294       0.32076169      -0.04360081      -0.08073479
H       -1.33853073       2.91434044      -0.69602074       0.21188731      -0.10616170       0.11343926
H       -0.11437683      -1.13451932      -1.41421127       0.00120616       0.00060796       0.00276512
H       -1.85397101       0.87861191      -1.78057344      -0.01121448       0.05198594       0.24726874
H       -0.48107327      -2.26283914      -0.11654881       0.00052812       0.01332527      -0.00311363
H        0.20907661      -0.48927051       1.56763704       0.00972454      -0.00286920      -0.02817198
H        2.53215783      -1.00711837       1.46531319      -0.00593038       0.00038023       0.00389471
H        3.78430553      -1.03404850      -0.63265308      -0.00926212       0.01514479      -0.00031102
H        2.31613570      -1.34053897      -1.56354938       0.00087450      -0.00040132      -0.00110880
H        3.10170600       1.20373599      -0.07238204       0.00000000       0.00000000       0.00000000
H        2.36344496       1.11933193      -1.66676528      -0.00484447       0.02423459      -0.00645446
H        1.44304237      -3.31073301      -0.23761216      -0.00534354      -0.01037253       0.00179637
H        2.84958978      -3.31669452       0.82698993      -0.00008268      -0.00014214       0.00121379
H        1.23188794      -3.18294435       1.52064753       0.00106405      -0.00176602       0.00060553
H        1.38756267       3.26938831      -1.31844654      -0.05438654       0.07416883       0.20287091
H        2.07708955       3.50922017       0.30046625      -0.19153311      -0.12648013      -0.05878896
H        0.49728096       4.19917001      -0.10299957       0.11373462      -0.12835366      -0.07454469
H       -0.70555697       1.31628979       2.01369372       0.03879772       0.02942731      -0.04113814
H       -0.58514021       3.13663941       1.82557359      -0.00050443      -0.01995303      -0.00980754
H       -3.77664462      -1.05091092      -1.20073593       0.00617798      -0.00378855       0.00805744
H       -2.38402325      -1.38233585      -2.24319496       0.04613540       0.04480604       0.00266795
H       -2.78697071      -2.49027461      -0.92835097      -0.00016734       0.00653088       0.04289686
H       -1.89572918      -0.30720498       1.95693582       0.00845337       0.00098053      -0.00992591
H       -3.47458606      -0.52010842       1.21522662       0.00481263       0.00933313      -0.02750886
H       -2.40899012      -1.90890660       1.43589059       0.00894379      -0.01262784      -0.01455238
40
Properties=species:S:1:pos:R:3:forces:R:3 IM6b=T energy=0.03965948271907055 pbc="F F F"
C       -1.94312336       0.84258178      -0.68792542      -0.13029032      -0.07644220       0.02882767
C       -1.07088064       1.97965348      -0.25137956       0.14645308      -0.12217108       0.19115626
C        0.43974854       2.12481665       0.25016286      -0.18366203      -0.03002759      -0.02770457
C       -1.87244443      -0.64369330      -0.24963242       0.01980081      -0.04757041      -0.01262955
C        1.02308928       0.74243182      -0.01757453       0.03526993      -0.01775828       0.01069738
C       -0.44909830      -1.22353793      -0.36240180      -0.01437792       0.02770779       0.01222823
C        0.62981564      -0.58262283       0.55676109      -0.01149483       0.01334924      -0.00616015
C        1.97481617      -1.36187613       0.58405013       0.00656051      -0.00729829       0.00081774
C        2.70516834      -0.85294415      -0.66503399      -0.00034102      -0.01646136       0.00921563
C        2.35271430       0.64820373      -0.68901446       0.02030545      -0.01217853      -0.03240629
C        1.87001949      -2.87907735       0.67634978      -0.00324002       0.00289155      -0.00458924
C        1.15490020       3.37861589      -0.21281333      -0.06983025      -0.04830816       0.01738392
C       -0.56855480       2.18380262       1.39205652       0.00726363       0.01659046      -0.05487248
C       -2.76581363      -1.44772016      -1.21492900       0.00617197      -0.03549878       0.02820472
C       -2.43919927      -0.85304236       1.16544831       0.03007658       0.05900142      -0.00034928
H       -2.96611580       1.17666363      -0.42711568       0.01212011       0.04775142       0.08354164
H       -1.26391907       2.86990772      -0.84693186       0.06695767       0.10014897      -0.00992189
H       -0.12468209      -1.17741858      -1.41224843      -0.00299045       0.00053045       0.01685155
H       -1.94457041       0.85778273      -1.78919513       0.09182893      -0.01573220      -0.13127915
H       -0.49644788      -2.28558937      -0.09784974       0.00116516       0.02613462      -0.00651001
H        0.20144798      -0.49241557       1.56063661       0.01481801      -0.00485693      -0.03906431
H        2.52596445      -0.99929008       1.46340571      -0.01233010      -0.00136360      -0.00257270
H        3.78286602      -1.02076417      -0.63423315      -0.00924793      -0.00325687      -0.00519741
H        2.31780464      -1.34242124      -1.56596857       0.00100120       0.00066363       0.00588672
H        3.08067365       1.20109263      -0.07418189      -0.05222616       0.01820994       0.00822372
H        2.35788260       1.11080366      -1.68397148      -0.00773635       0.02633009       0.01307001
H        1.45057778      -3.31310692      -0.23653695      -0.00424106      -0.01155977       0.01026640
H        2.86428735      -3.30862892       0.82026449      -0.00206237      -0.00186764       0.00418004
H        1.24902753      -3.18758448       1.52286880       0.00391846      -0.00668251       0.00235961
H        1.45478809       3.28467020      -1.25973969       0.04983386       0.05066334      -0.10201909
H        2.04644356       3.60371747       0.37628916      -0.20425048      -0.18944819      -0.00586049
H        0.47943606       4.23307421      -0.13910250       0.02673531       0.05644082       0.00311028
H       -0.71625152       1.31487636       2.01618398       0.01153094      -0.03652350       0.00560433
H       -0.53098638       3.13630038       1.90981264       0.00134269       0.03404202       0.01850447
H       -3.78482456      -1.04704133      -1.21040701       0.00213392      -0.00814669       0.00864238
H       -2.39775837      -1.42067683      -2.24562537       0.07969869       0.10254299       0.03094670
H       -2.82172594      -2.50172730      -0.92019639       0.00598745       0.03180111       0.08017744
H       -1.89602505      -0.31825762       1.94985290       0.03081964       0.02218978      -0.01722718
H       -3.47902396      -0.51482205       1.21405483       0.00364967       0.02042164      -0.05324344
H       -2.43002620      -1.91473627       1.43581055       0.03287762       0.03574130      -0.07828959
40
Properties=species:S:1:pos:R:3:forces:R:3 IM6b=T energy=0.06315053782178609 pbc="F F F"
C       -1.93380384       0.83525337      -0.69124801       0.00817344      -0.26452555       0.09695163
C       -0.99261718       1.94361545      -0.35225325       0.32085672      -0.10638150       0.34478404
C        0.43050761       2.16857397       0.28536946      -0.21929129       0.00254658      -0.11122652
C       -1.87913061      -0.65431600      -0.25428169       0.00244713      -0.07190560      -0.01271528
C        0.99558120       0.72590063      -0.04703663       0.04866748      -0.00927672       0.01312074
C       -0.45951436      -1.24648143      -0.35904737      -0.03384981       0.04555120       0.01171137
C        0.62150914      -0.59454902       0.54984745      -0.00312213       0.01942434      -0.01768597
C        1.97248295      -1.36044606       0.58129524       0.01607544      -0.00544275      -0.00611268
C        2.70089131      -0.84918234      -0.66788407      -0.00286748       0.01268239       0.00245658
C        2.33458680       0.65003127      -0.70002169       0.02017873      -0.04321948      -0.04181049
C        1.87915853      -2.87838175       0.67482049      -0.00767494       0.00033367       0.00228326
C        1.15163108       3.42203563      -0.18153272      -0.10505979      -0.24026753       0.10018777
C       -0.52844947       2.20298498       1.43063558       0.00449058      -0.03252221      -0.06558979
C       -2.77921716      -1.45574214      -1.21713055       0.02356411      -0.01636695       0.03666538
C       -2.44650083      -0.85680459       1.16244782       0.04244138       0.05982082      -0.02254989
H       -2.91761947       1.20716198      -0.35888015      -0.23107885       0.12304867       0.21924562
H       -1.16658597       2.80303295      -0.99279750       0.03251411       0.27088532      -0.10990756
H       -0.13559226      -1.21667860      -1.40964458      -0.00274929      -0.00034527       0.01337220
H       -2.02527162       0.84324176      -1.78820128       0.08448444      -0.06072625      -0.37890296
H       -0.51280526      -2.30442189      -0.07964434       0.00127523       0.02531608      -0.00668600
H        0.19451163      -0.49486898       1.55327817       0.01444029      -0.00438947      -0.03107209
H        2.51955279      -0.99179720       1.46077239      -0.01187490      -0.00282478      -0.00577318
H        3.78021461      -1.00537452      -0.63553360      -0.00790559      -0.03061682      -0.00549338
H        2.31939237      -1.34381951      -1.56856471       0.00144991       0.00139880       0.01163097
H        3.05110041       1.20384622      -0.07378619      -0.07748023       0.04100693       0.01626998
H        2.34924546       1.10742492      -1.69770215      -0.00930206       0.02499988       0.02442247
H        1.45804636      -3.31469377      -0.23609645      -0.00571679      -0.01326815       0.00709209
H        2.87743769      -3.30033197       0.81319747      -0.00251812      -0.00211621       0.00484536
H        1.26507043      -3.19124272       1.52456296       0.00422820      -0.00832258       0.00327094
H        1.51328088       3.29310323      -1.20156786       0.15462154      -0.02047670      -0.33276182
H        1.99475480       3.69238444       0.45002445      -0.07373721      -0.17568034       0.12034112
H        0.45124194       4.25459913      -0.18692072      -0.12773661       0.27859066       0.05262172
H       -0.72650478       1.31765198       2.01737527      -0.00819297      -0.03662364       0.02427171
H       -0.47868711       3.13234774       1.98597606       0.00370239       0.06914585       0.04131809
H       -3.79168450      -1.03898180      -1.21870531      -0.00202488      -0.02248443      -0.00198605
H       -2.40747300      -1.44373710      -2.24700392       0.07998271       0.09354860       0.04675523
H       -2.85113769      -2.50660843      -0.91517503       0.00097680       0.03473086       0.09046050
H       -1.89608030      -0.32767125       1.94482331       0.02867388       0.02060384      -0.01954322
H       -3.48280861      -0.50837157       1.21273068      -0.00539883      -0.00707393      -0.02931545
H       -2.44871399      -1.91868704       1.43350296       0.04433726       0.05122239      -0.08494646
40
Properties=species:S:1:pos:R:3:forces:R:3 IM6b=T energy=0.07394826272816436 pbc="F F F"
C       -1.92310900       0.82504937      -0.69060750       0.00503906      -0.14398764      -0.03170464
C       -0.90537781       1.88728067      -0.43898801       0.04668338      -0.01583067       0.05578575
C        0.41915812       2.20399501       0.32379877      -0.01515218       0.02658028      -0.02097403
C       -1.88466687      -0.66389809      -0.25629884      -0.03049979       0.02312049      -0.01828273
C        0.96689567       0.70848299      -0.07550839       0.02539794       0.01072370       0.00744489
C       -0.46986332      -1.26676022      -0.35543673      -0.01695768       0.02033345       0.00784475
C        0.61345935      -0.60629320       0.54291993      -0.00333173       0.00700037      -0.00872324
C        1.97016029      -1.35870213       0.57781084       0.00984599      -0.00241778      -0.00420966
C        2.69561800      -0.84368798      -0.67121044       0.00601921       0.00549528      -0.00761330
C        2.31470725       0.65134796      -0.71100767       0.01556161      -0.02688447      -0.02954306
C        1.88736014      -2.87702565       0.67291690      -0.00733878       0.00020908       0.00563951
C        1.13899080       3.45636126      -0.15454915      -0.04316214      -0.08914811       0.03171762
C       -0.48913758       2.21872167       1.46072556      -0.00128750      -0.01874520      -0.01223524
C       -2.79074546      -1.45698431      -1.21965173       0.02302050       0.01113451       0.01611407
C       -2.45280155      -0.85837234       1.16113574       0.03208310       0.03917838      -0.00706015
H       -2.85942737       1.24965798      -0.29089284      -0.11126106       0.03802705       0.14983522
H       -1.05429901       2.72256936      -1.12957044      -0.08946632       0.11935764      -0.09004893
H       -0.14690789      -1.25304560      -1.40649806       0.00137142      -0.00121177       0.00416764
H       -2.09237680       0.83254780      -1.78272054       0.00665793      -0.01140536      -0.16055321
H       -0.52986817      -2.32019128      -0.06184595       0.00077820       0.01366184      -0.00380755
H        0.18807054      -0.49682263       1.54559722       0.00862520      -0.00285586      -0.01523011
H        2.51282858      -0.98454470       1.45754781      -0.00350798      -0.00245116      -0.00037451
H        3.77649594      -0.98786924      -0.63656634      -0.00190247      -0.03014523      -0.00224958
H        2.32088305      -1.34464815      -1.57126562       0.00321267      -0.00902612       0.00469576
H        3.01482942       1.21081263      -0.07154959      -0.05190853       0.03731463       0.01515787
H        2.33831492       1.10817298      -1.70841772      -0.00933219       0.02914116       0.01264835
H        1.46546553      -3.31565409      -0.23610636      -0.00598133      -0.01201937       0.00211559
H        2.88940909      -3.29185902       0.80594461      -0.00178838      -0.00471160       0.00433381
H        1.28022882      -3.19406411       1.52588133       0.00253667      -0.00808186       0.00431464
H        1.56375078       3.29471575      -1.14773889       0.11223672      -0.01103780      -0.14275777
H        1.92631307       3.77431991       0.52113446      -0.00155357      -0.11647318       0.13070869
H        0.41297605       4.26805494      -0.24510609       0.00850271       0.14603395       0.04715300
H       -0.73624310       1.32324029       2.01780226      -0.00022253      -0.00129646      -0.00002523
H       -0.42682620       3.12593904       2.05287838       0.00151002       0.02004166       0.01226047
H       -3.79752066      -1.02671564      -1.22535714      -0.00171866      -0.03630153      -0.01323538
H       -2.41368445      -1.45170429      -2.24785305       0.05225914      -0.00936681       0.03674731
H       -2.87530146      -2.50496580      -0.91341371      -0.01590878      -0.00175801       0.07072466
H       -1.89593588      -0.33579765       1.94166300       0.01306247       0.01313015      -0.01551808
H       -3.48606159      -0.50062786       1.21102674      -0.00292375      -0.03203679      -0.00011480
H       -2.46576124      -1.92103564       1.42937725       0.04080143       0.02670913      -0.03514842
40
Properties=species:S:1:pos:R:3:forces:R:3 IM6b=T energy=0.08502403824313945 pbc="F F F"
C       -1.91085675       0.81682938      -0.68845751      -0.06241379       0.09787819      -0.10287626
C       -0.81719548       1.82175435      -0.51581640      -0.13090659       0.11942192      -0.27942216
C        0.40365872       2.23585237       0.35856887      -0.03065984       0.04037980      -0.00895993
C       -1.88943267      -0.67246392      -0.25727042      -0.00561159       0.03023162      -0.01385217
C        0.93756595       0.69095018      -0.10348865      -0.00206646       0.00536081       0.00585010
C       -0.48004360      -1.28603456      -0.35194068      -0.00112777      -0.00233065       0.00086880
C        0.60540133      -0.61772407       0.53626439       0.00984279       0.01351142      -0.01059595
C        1.96773586      -1.35670928       0.57409740       0.00079551      -0.00212880       0.00028630
C        2.68992529      -0.83743611      -0.67478813       0.00867025      -0.01209715      -0.00891193
C        2.29405144       0.65264423      -0.72119978       0.01187745       0.00704882      -0.00389025
C        1.89534830      -2.87531500       0.67070477      -0.00167169      -0.00248226       0.00193587
C        1.11962446       3.48720400      -0.13188615       0.03129722       0.09842767      -0.02639664
C       -0.45117897       2.23258571       1.49071670      -0.00221101       0.01692984       0.03178644
C       -2.80139282      -1.45476707      -1.22259491      -0.00786946      -0.05320183       0.00340663
C       -2.45902681      -0.85905471       1.16010801       0.00579189       0.00747242       0.00070863
H       -2.79557840       1.29275596      -0.22645688       0.11943027      -0.03272798      -0.00460132
H       -0.93020989       2.62811208      -1.25742248      -0.08084809      -0.05783296       0.06602554
H       -0.15799374      -1.28809051      -1.40315968       0.00315999      -0.00112356      -0.00209132
H       -2.15054150       0.82931362      -1.77110602      -0.09107109       0.04186455       0.09165197
H       -0.54660855      -2.33484138      -0.04454654       0.00017427       0.00274575      -0.00080475
H        0.18179961      -0.49859633       1.53816764       0.00294445      -0.00141476      -0.00158945
H        2.50608398      -0.97743159       1.45412380       0.00306221      -0.00105460       0.00390010
H        3.77223338      -0.96946599      -0.63731272       0.00371205      -0.01729577       0.00237015
H        2.32241925      -1.34515496      -1.57400112       0.00342824      -0.02019256      -0.00413169
H        2.97622335       1.21917112      -0.06836473      -0.01227436       0.01280178       0.00343213
H        2.32647415       1.11123561      -1.71693435      -0.01135153       0.03343772      -0.00278209
H        1.47278598      -3.31636050      -0.23642047      -0.00368709      -0.00619769       0.00595074
H        2.90090120      -3.28344629       0.79857743      -0.00221075      -0.00504766       0.00327327
H        1.29497431      -3.19635707       1.52678980      -0.00087188      -0.00828003       0.00321008
H        1.60864828       3.29522869      -1.09324469       0.01974909       0.06519440       0.16112645
H        1.84807732       3.85376345       0.58349958       0.01816269      -0.11140801       0.01811946
H        0.37285850       4.27393454      -0.30934676       0.15515847      -0.05070258       0.04375174
H       -0.74548570       1.33061075       2.01830463       0.00023007      -0.00766443      -0.01023547
H       -0.37458253       3.11778241       2.11681369       0.00198093      -0.00926541      -0.02155097
H       -3.80280418      -1.01219927      -1.23053439      -0.00042821      -0.05012911      -0.02494059
H       -2.41931317      -1.45064824      -2.24912533       0.02226105      -0.10646088       0.02098712
H       -2.89661708      -2.50038764      -0.91523411      -0.03306432      -0.03833329       0.04694776
H       -1.89605851      -0.34347096       1.93961205       0.01645806       0.01897256       0.00605771
H       -3.48890124      -0.49139632       1.20925792       0.00886775      -0.01475754      -0.00906103
H       -2.48296906      -1.92237667       1.42504622       0.03329083       0.00045025       0.01504698
40
Properties=species:S:1:pos:R:3:forces:R:3 IM6b=T energy=0.07752784299834664 pbc="F F F"
C       -1.89692234       0.81589069      -0.68752332      -0.01128601       0.16806830      -0.00040887
C       -0.73606805       1.75859122      -0.58786278      -0.01445720       0.01474889      -0.14563201
C        0.38151138       2.26916841       0.38224709      -0.14497031       0.03844583      -0.08855028
C       -1.89384289      -0.67993123      -0.25887433       0.00022592       0.01329956      -0.01975295
C        0.90813715       0.67414049      -0.13152543      -0.00255543       0.00589724       0.00480147
C       -0.48997487      -1.30601691      -0.34895830      -0.00863779       0.00862815      -0.00078725
C        0.59705148      -0.62871743       0.53018170       0.00830311       0.01245604      -0.01221777
C        1.96509247      -1.35452816       0.57065945       0.00269283      -0.00557310       0.00099577
C        2.68442123      -0.83142314      -0.67841130       0.00428466      -0.01158838      -0.00310160
C        2.27360096       0.65442065      -0.72976959       0.00864569       0.00611681      -0.00095803
C        1.90387503      -2.87356219       0.66823668      -0.00052719      -0.00423763       0.00330344
C        1.09617684       3.52067330      -0.11366537       0.03440214       0.04612978       0.01293732
C       -0.41517845       2.24630552       1.52970339      -0.00362912       0.00885826       0.02929480
C       -2.81223703      -1.45265170      -1.22606815      -0.01812773      -0.08841587       0.00618688
C       -2.46615118      -0.86019358       1.15792208       0.01813360       0.01529758      -0.00866970
H       -2.72983210       1.32464159      -0.16890257       0.14118781      -0.02663360       0.00369767
H       -0.79696025       2.51834635      -1.37686194      -0.04453553       0.05813115      -0.08017210
H       -0.16819797      -1.32344468      -1.39999143       0.00000000       0.00000000       0.00000000
H       -2.20503970       0.83764228      -1.75110069      -0.12803898       0.03912388       0.05943086
H       -0.56196508      -2.35037704      -0.02784156       0.00027468       0.00398479      -0.00122523
H        0.17536716      -0.50051495       1.53159029       0.00387269      -0.00184795      -0.00207931
H        2.49963553      -0.97035454       1.45090532       0.00331262      -0.00119521       0.00082590
H        3.76797106      -0.95146908      -0.63775575       0.00626474      -0.00904622       0.00531289
H        2.32415507      -1.34561331      -1.57670425      -0.00016421      -0.01967751      -0.00437156
H        2.93974034       1.22602720      -0.06514915      -0.00778519       0.00063621      -0.00845954
H        2.31511616       1.11477983      -1.72408983      -0.00823054       0.03365576       0.00304949
H        1.47995718      -3.31719870      -0.23689899      -0.00108859      -0.00027995       0.00554739
H        2.91263364      -3.27533506       0.79115302      -0.00413801      -0.00113637       0.00258897
H        1.30980129      -3.19844046       1.52723813      -0.00153715      -0.00880782       0.00277752
H        1.65051451       3.30076526      -1.03230022       0.04268904       0.06498025       0.13181953
H        1.76700678       3.93531718       0.63063324      -0.00500033      -0.10325008       0.00982883
H        0.33971055       4.27235872      -0.37517368       0.10893522      -0.05968440       0.07266512
H       -0.75426223       1.33880882       2.01971861       0.00603258       0.01550261      -0.00954986
H       -0.32117090       3.10849456       2.18460333      -0.00719737      -0.01863473      -0.00744874
H       -3.80801406      -0.99751872      -1.23445126      -0.01056033      -0.06438809      -0.02810648
H       -2.42742883      -1.44704498      -2.25178425       0.02134605      -0.08899331       0.02376950
H       -2.91765424      -2.49669441      -0.92096647      -0.03962959      -0.05530632       0.05382875
H       -1.89693949      -0.35155132       1.93787460       0.00890435       0.01061520      -0.00326828
H       -3.49143729      -0.48047536       1.20777716       0.00910716      -0.00256372      -0.02137598