40
Properties=species:S:1:pos:R:3:forces:R:3 charge=1 spin=1 energy=-15953.761532861789 free_energy=-15953.761532861789 stress="2.101149082183838 -0.13192476332187653 -0.024471014738082886 -0.13192476332187653 2.5844764709472656 -0.13976074755191803 -0.024471014738082886 -0.13976074755191803 2.2299811840057373" pbc="F F F"
C       -1.96149975       0.85693003      -0.67600960      -0.01602306       0.01691234       0.01577552
C       -1.17999370       1.98109696      -0.03682923      -0.01451101       0.01159765       0.02410600
C        0.44071482       2.00939997       0.18368280       0.22920671      -0.16747724      -0.02185967
C       -1.85636692      -0.61510125      -0.23246380       0.01572939       0.06006709       0.01938910
C        1.07378288       0.77438779       0.04417200      -0.07356531       0.12039255      -0.01911168
C       -0.42901265      -1.16698776      -0.36881114       0.02373842      -0.03983708      -0.00797631
C        0.64723613      -0.55861233       0.57078078      -0.01723988       0.06633692       0.00766599
C        1.97959211      -1.36338964       0.58633645      -0.03014977      -0.00870625      -0.02049012
C        2.71067314      -0.85391719      -0.66211475      -0.02861005       0.01895247       0.00285154
C        2.38170696       0.64210312      -0.66598102      -0.02395846      -0.04051978       0.03892500
C        1.84803779      -2.87795438       0.67754899       0.00830425       0.02323899      -0.00280535
C        1.12724221       3.27246710      -0.29166842      -0.04853255      -0.03919696       0.00990368
C       -0.65293285       2.13867948       1.30014103      -0.01185815       0.01873017      -0.06202765
C       -2.73451960      -1.41443216      -1.21136411      -0.01714586      -0.01107599       0.00670105
C       -2.42144962      -0.83718884       1.17822233      -0.00536198      -0.01609425       0.00163759
H       -3.01113169       1.16303448      -0.55792123       0.10833983      -0.04781411      -0.04621832
H       -1.38027661       2.92271095      -0.54628364       0.01684302      -0.10285340       0.09241818
H       -0.10465161      -1.08765924      -1.41556476      -0.04326739      -0.01885513       0.12178727
H       -1.76147231       0.91128762      -1.75371887      -0.02847807      -0.01344830       0.10811648
H       -0.46657206      -2.23587754      -0.13592017       0.00382577       0.12052221      -0.05040201
H        0.21752864      -0.48530776       1.57452117       0.05196781       0.01546925      -0.11432794
H        2.53842615      -1.01537403       1.46649273      -0.05994732      -0.01793124      -0.09139879
H        3.78458352      -1.04587009      -0.63076579      -0.11202320       0.01798753      -0.01000727
H        2.31448296      -1.33843001      -1.56138029       0.04381397       0.05523883       0.10272095
H        3.11365155       1.21211773      -0.06830895      -0.08005188      -0.03205517      -0.06151081
H        2.36546103       1.13362596      -1.64580625      -0.00160689      -0.04532260       0.11704069
H        1.43538837      -3.30752069      -0.23952602       0.03379348       0.04219151       0.09573067
H        2.83314732      -3.32456651       0.83317472      -0.09438868       0.03800059      -0.01520931
H        1.21357310      -3.17726141       1.51765241       0.06485008       0.02641791      -0.08606253
H        1.31179121       3.25016034      -1.36934133       0.00025700       0.00263792       0.10754262
H        2.08377728       3.41244063       0.22021922      -0.08274920      -0.01296394      -0.05554839
H        0.50858878       4.14661090      -0.07843405       0.05396319      -0.09002701      -0.01585286
H       -0.69454258       1.32344673       2.00952683      -0.00144186       0.09280121      -0.09474439
H       -0.64287115       3.13197592       1.73829560      -0.01707918      -0.12390316      -0.05171557
H       -3.76693852      -1.05162315      -1.19019522       0.11324383      -0.03783552       0.00060330
H       -2.36698768      -1.33155527      -2.23941173      -0.03047603      -0.00229467       0.10813195
H       -2.74796300      -2.47402552      -0.93961224       0.01181100       0.10362681      -0.02602672
H       -1.89537099      -0.29440989       1.96595957      -0.04449345      -0.05450602      -0.08477297
H       -3.46937168      -0.52432612       1.21675275       0.11097893      -0.03449840      -0.01347932
H       -2.38546098      -1.90108498       1.43395322      -0.00770761       0.10609414      -0.02949966
40
Properties=species:S:1:pos:R:3:forces:R:3 charge=1 spin=1 energy=-15953.607937891093 free_energy=-15953.607937891093 stress="2.02677059173584 0.25006768107414246 -0.36828169226646423 0.25006768107414246 0.20089919865131378 -0.1314241588115692 -0.36828169226646423 -0.1314241588115692 2.1386752128601074" pbc="F F F"
C       -1.94139467       0.84259075      -0.68282002      -0.78115731      -0.60149157      -0.34563509
C       -1.20953889       1.95693373      -0.07442220       1.84534013       0.91249424       1.75633752
C        0.50629096       2.02142843       0.24406451      -0.55876672      -0.66144419       0.42141214
C       -1.85958503      -0.63259098      -0.22812053       0.09087381       0.14227499       0.00214643
C        1.10168946       0.77522055       0.06102270      -1.01147175       0.83757609      -0.30153444
C       -0.43387113      -1.17560324      -0.36557851       0.05729904       0.01075283       0.02644029
C        0.63200167      -0.54644908       0.56285884       0.22361232      -0.18216476       0.13212237
C        1.96603778      -1.34697682       0.57575849       0.02454574      -0.06229500       0.00708328
C        2.68971955      -0.84892876      -0.68272484       0.05448643      -0.05422741       0.04013642
C        2.36627463       0.64215654      -0.70067719       0.09663218      -0.08437479      -0.05271434
C        1.84566400      -2.85803267       0.67687848       0.01832009      -0.01217368       0.00901087
C        1.18829425       3.27856809      -0.22634601      -0.26813790      -0.02713319      -0.13036026
C       -0.66486022       2.13455235       1.29768380      -0.05312704       0.29927632      -2.49337864
C       -2.74217837      -1.42889284      -1.20426136       0.01020446       0.03799651       0.00792397
C       -2.42496982      -0.84796311       1.18161115       0.00399231       0.02264837      -0.01918886
H       -2.99135887       1.15618266      -0.53826454       0.11423584      -0.08211875      -0.20245416
H       -1.31909033       2.92337928      -0.57644898      -0.18101379      -0.41474962      -0.02091996
H       -0.11326430      -1.10184406      -1.41222334      -0.03416144      -0.01281728       0.07447241
H       -1.76310425       0.87411134      -1.76090839      -0.07435202       0.02522396      -0.03543584
H       -0.46351604      -2.24122024      -0.12332897       0.00457387       0.07846283      -0.03856428
H        0.20892611      -0.47174932       1.56883125       0.06036347       0.00216852      -0.08814824
H        2.52748929      -0.98697467       1.44851103      -0.02651144      -0.02595769      -0.07285263
H        3.76242675      -1.02899430      -0.64715679      -0.01404448      -0.08294611      -0.03010614
H        2.29475231      -1.34893786      -1.57192098       0.03556938       0.04823533       0.05553663
H        3.10091530       1.22393010      -0.13230120       0.20708026       0.02357665      -0.01856337
H        2.32234811       1.12137614      -1.68928213      -0.05788527      -0.09716320       0.21934050
H        1.43481967      -3.29501903      -0.23561767       0.01358620       0.01621896       0.05352505
H        2.83396901      -3.29308034       0.82998192      -0.03131633      -0.01031782      -0.00292055
H        1.21829259      -3.15971299       1.51920225       0.03014014       0.01522088      -0.03946383
H        1.36674678       3.24199523      -1.30467430       0.04965359       0.09887390       0.11497165
H        2.14184544       3.43712133       0.28295078      -0.06620067      -0.05581851      -0.00717067
H        0.54985068       4.13578088      -0.01492158       0.10172819       0.07497020      -0.05393801
H       -0.72365111       1.34790197       2.00236527      -0.07244883      -0.46762168       0.56226760
H       -0.74135156       3.14640671       1.64307832       0.07397234       0.21083389       0.47704211
H       -3.77014216      -1.05695520      -1.19350716       0.06997430      -0.01924452       0.01201028
H       -2.36806966      -1.35846573      -2.22942920      -0.01841876      -0.00279576       0.06423549
H       -2.76760050      -2.48483492      -0.92395026       0.02167309       0.07435856      -0.01430254
H       -1.89680237      -0.30437606       1.96512473      -0.02292498      -0.03612629      -0.03505680
H       -3.47059948      -0.53189341       1.21789651       0.06204623      -0.02181707      -0.00187136
H       -2.39340556      -1.91014044       1.44106608       0.00203538       0.08363614      -0.03143505
40
Properties=species:S:1:pos:R:3:forces:R:3 charge=1 spin=1 energy=-15953.483308631983 free_energy=-15953.483308631983 stress="1.4537264108657837 0.6055359244346619 -0.6066502332687378 0.6055359244346619 -0.8210187554359436 -0.3279905319213867 -0.6066502332687378 -0.3279905319213867 0.8405793905258179" pbc="F F F"
C       -1.92538776       0.82593592      -0.69011458      -0.91026652      -0.60861105      -0.39081800
C       -1.19455696       1.94097426      -0.09850384       1.85720503       0.85841322       1.56623435
C        0.55708595       2.03320084       0.30828913      -0.79483694      -0.82267743       0.39260679
C       -1.86184093      -0.64730972      -0.22355443       0.11190349       0.16068931      -0.00457427
C        1.10497069       0.78143205       0.06930255      -1.21549976       0.97687697      -0.36334857
C       -0.43789960      -1.18601505      -0.35851328       0.06568991       0.02588533       0.03888633
C        0.61869051      -0.53862378       0.55971962       0.33252659      -0.25106245       0.14865810
C        1.95780541      -1.33054284       0.56621378       0.02995485      -0.08518936       0.02492258
C        2.66664117      -0.84264421      -0.70400897       0.09566118      -0.06502175       0.04228602
C        2.33931587       0.64539343      -0.73652610       0.14539245      -0.13903427      -0.04023034
C        1.84824133      -2.83978025       0.67849913       0.02763791      -0.02029149       0.01620904
C        1.24070277       3.28330310      -0.15927131      -0.28828770       0.05625337      -0.18118082
C       -0.67809796       2.13414739       1.27402872       0.17616291       0.48228937      -2.54702663
C       -2.74820626      -1.44029423      -1.19775679       0.02400333       0.05989138       0.00857112
C       -2.42923247      -0.85573961       1.18557829       0.00618351       0.04711216      -0.03262637
H       -2.97216293       1.15318974      -0.52603473       0.15347572      -0.06926312      -0.26563177
H       -1.25001616       2.90932285      -0.61432353      -0.26281881      -0.58521670      -0.07625765
H       -0.11946133      -1.11825980      -1.40540369      -0.02803440      -0.01794854       0.04841534
H       -1.76265920       0.84035765      -1.76916921      -0.09435711       0.05808109      -0.08583508
H       -0.46223232      -2.24835439      -0.10639444       0.00103179       0.04261020      -0.03719428
H        0.20473696      -0.46358315       1.56856189       0.04938036      -0.00945693      -0.05917571
H        2.52455984      -0.95878800       1.42954566      -0.00364904      -0.02671031      -0.05194251
H        3.73985069      -1.01144278      -0.67141943       0.03432937      -0.12743358      -0.03904529
H        2.27086021      -1.35873345      -1.58199840       0.02428004       0.03942885       0.02159991
H        3.08352953       1.23655193      -0.19998420       0.35127711       0.06545668      -0.01198632
H        2.26639564       1.10620591      -1.73221877      -0.09428433      -0.09914769       0.23139748
H        1.43757861      -3.28411108      -0.22916896       0.00006613      -0.00472256       0.02523458
H        2.83968564      -3.26517539       0.82910130       0.00812778      -0.03753438       0.00511906
H        1.22736519      -3.14139063       1.52401517       0.00769462       0.00434209      -0.00453032
H        1.42244377       3.23726558      -1.23730777       0.06035904       0.15627664       0.14102273
H        2.19340532       3.45012898       0.35252189      -0.12835385      -0.08755831      -0.01015089
H        0.59133973       4.13198674       0.05034570       0.15494893       0.15855135      -0.08690495
H       -0.76189027       1.36383967       1.98777910      -0.15350683      -0.52151626       0.74233800
H       -0.83192687       3.15487734       1.55010333       0.16911939       0.32413483       0.82844555
H       -3.77230711      -1.05973938      -1.19402085       0.04337984      -0.01307417       0.01660714
H       -2.36892040      -1.37783823      -2.22060056      -0.01230784      -0.00763142       0.03460327
H       -2.78341426      -2.49372614      -0.91231707       0.02418661       0.05240151      -0.00638124
H       -1.89842446      -0.31465613       1.96770411      -0.00766972      -0.02311307      -0.00903135
H       -3.47248167      -0.53447298       1.22015578       0.03229804      -0.01257782       0.00364354
H       -2.40408591      -1.91689213       1.44714574       0.00759658       0.06609830      -0.03292939
40
Properties=species:S:1:pos:R:3:forces:R:3 charge=1 spin=1 energy=-15953.442339737025 free_energy=-15953.442339737025 stress="0.9997960329055786 0.9008910059928894 -0.7030513882637024 0.9008910059928894 -0.9818826913833618 -0.6923536658287048 -0.7030513882637024 -0.6923536658287048 -0.9750097990036011" pbc="F F F"
C       -1.91224974       0.80828687      -0.69748305      -0.64831609      -0.21518147      -0.22384587
C       -1.14517672       1.92698333      -0.11683211       1.00337648       0.16533399       0.27322528
C        0.59525861       2.04428724       0.37344429      -0.82814097      -0.74337369       0.08441054
C       -1.86357298      -0.65975992      -0.21912298       0.10403545       0.15017766      -0.01123358
C        1.08869074       0.79135036       0.06956342      -0.90639883       0.72527677      -0.31423235
C       -0.44162353      -1.19821129      -0.34829710       0.04864287       0.01129173       0.03283460
C        0.60694800      -0.53418508       0.55986261       0.33842176      -0.20398697       0.10175754
C        1.95334906      -1.31410793       0.55742426       0.01143409      -0.07843968       0.03271166
C        2.64218566      -0.83505826      -0.72551401       0.10608828      -0.03431372       0.02289135
C        2.30423234       0.65112263      -0.77257695       0.13591836      -0.19098383       0.04252426
C        1.85487767      -2.82277408       0.68172039       0.03343432      -0.00979484       0.01900362
C        1.28464599       3.28732400      -0.09219931      -0.19596180       0.15857552      -0.16319779
C       -0.69025662       2.13704296       1.23877946       0.39467600       0.54207677      -1.14756405
C       -2.75321202      -1.44920529      -1.19202265       0.03014966       0.06008998       0.01133990
C       -2.43433494      -0.86067051       1.18960144       0.00468758       0.05620719      -0.04117243
H       -2.95187160       1.15472981      -0.51819744       0.21607135      -0.03963940      -0.26851818
H       -1.17323857       2.88114956      -0.66056831      -0.25241238      -0.59349346      -0.11576356
H       -0.12392528      -1.13780277      -1.39555156      -0.02310820      -0.02849789       0.03659458
H       -1.76262957       0.81014894      -1.77807498      -0.08837215       0.07583103      -0.07874786
H       -0.46311631      -2.25708420      -0.08534118      -0.00227316       0.01242028      -0.03942878
H        0.20384755      -0.45919037       1.57205121       0.02721740      -0.01586082      -0.03160855
H        2.52719069      -0.93087107       1.40998959       0.00990130      -0.02236349      -0.03137735
H        3.71701923      -0.99324256      -0.70112689       0.04473845      -0.13014366      -0.04122805
H        2.24418603      -1.36731459      -1.59167934       0.01156597       0.03284458       0.00035072
H        3.06197079       1.24959146      -0.26760643       0.36318678       0.08832061      -0.02662556
H        2.20343996       1.08991689      -1.77400300      -0.11667132      -0.07159811       0.19611825
H        1.44316373      -3.27477568      -0.22074354      -0.00867125      -0.01988334       0.00794701
H        2.84954183      -3.23973712       0.82964851       0.02989159      -0.04744379       0.01007902
H        1.24036251      -3.12283329       1.53130545      -0.00504567      -0.00447226       0.02014053
H        1.47850479       3.23534568      -1.16837738       0.04427672       0.18145573       0.16703632
H        2.23614913       3.45524673       0.42763650      -0.22236951      -0.10952406      -0.03641484
H        0.63037588       4.13344502       0.11373840       0.20028012       0.18870996      -0.11083680
H       -0.80638175       1.37280176       1.96636831      -0.20047539      -0.24691726       0.56668013
H       -0.91157828       3.15936817       1.46654460       0.27206969       0.31938896       1.05256486
H       -3.77391721      -1.06051802      -1.19278849       0.02966295      -0.01390413       0.01750202
H       -2.36980340      -1.39155630      -2.21300031      -0.01012792      -0.01445316       0.01481483
H       -2.79658152      -2.50097180      -0.90392725       0.02068763       0.03380895      -0.00114638
H       -1.89997207      -0.32492630       1.97232861       0.00205485      -0.01277065       0.00097515
H       -3.47486028      -0.53208448       1.22296320       0.01714232      -0.00483095       0.00429603
H       -2.41763780      -1.92126054       1.45206399       0.00873260       0.05006121      -0.03285627
40
Properties=species:S:1:pos:R:3:forces:R:3 charge=1 spin=1 energy=-15953.368812162478 free_energy=-15953.368812162478 stress="0.803554356098175 1.0268254280090332 -0.6300269961357117 1.0268254280090332 -0.7988739013671875 -1.2085596323013306 -0.6300269961357117 -1.2085596323013306 -2.86977219581604" pbc="F F F"
C       -1.90075133       0.79096496      -0.70451515      -0.21915625       0.20773357      -0.04523787
C       -1.07152701       1.90872573      -0.13716495      -0.10910585      -0.63847280      -1.41371143
C        0.62296775       2.05425770       0.43661762      -0.70305520      -0.54145765      -0.28671286
C       -1.86521951      -0.67044400      -0.21518367       0.08036941       0.12670532      -0.01949240
C        1.05791379       0.80330356       0.06235719      -0.33327091       0.30440637      -0.19955517
C       -0.44556844      -1.21218002      -0.33561163       0.01724919      -0.01855630       0.01787621
C        0.59641949      -0.53218163       0.56178732       0.25518480      -0.10727320       0.02649072
C        1.95112281      -1.29769232       0.54911185      -0.01257749      -0.04630606       0.03158697
C        2.61710065      -0.82616563      -0.74678680       0.09489495       0.01386150      -0.00840646
C        2.26442572       0.65865297      -0.80787895       0.09567813      -0.22183968       0.13043320
C        1.86468089      -2.80659113       0.68585170       0.03378831       0.00939720       0.01883517
C        1.32030216       3.29128268      -0.02688500      -0.05708432       0.24377170      -0.09687757
C       -0.69894676       2.14281738       1.20153968       0.45953265       0.57202387       0.86275524
C       -2.75780442      -1.45619498      -1.18723120       0.03142693       0.04551827       0.01557139
C       -2.44037459      -0.86290794       1.19315833       0.00288102       0.05403799      -0.04446040
H       -2.92881259       1.16147697      -0.51171826       0.27220622      -0.00181238      -0.22763182
H       -1.08894200       2.83946731      -0.71584437      -0.16828454      -0.51207757      -0.14807867
H       -0.12733877      -1.16136926      -1.38311268      -0.01822567      -0.04021731       0.03020220
H       -1.76550777       0.78360759      -1.78719932      -0.06598403       0.07146098      -0.04695125
H       -0.46656342      -2.26721385      -0.06039377      -0.00526710      -0.01311752      -0.04186532
H        0.20514426      -0.45695205       1.57763734       0.00384493      -0.01626186      -0.00933714
H        2.53293475      -0.90328097       1.39023577       0.01584607      -0.01432408      -0.01319707
H        3.69409625      -0.97442066      -0.73385234       0.03146619      -0.10691781      -0.03976629
H        2.21610915      -1.37417905      -1.60103060      -0.00124044       0.02992558      -0.01004336
H        3.03671565       1.26265689      -0.33141634       0.27563933       0.09093007      -0.04724987
H        2.13931743       1.07431072      -1.81402168      -0.12552746      -0.03588670       0.14209193
H        1.45107356      -3.26699170      -0.21090511      -0.01433427      -0.02820534      -0.00161231
H        2.86278222      -3.21565098       0.83073921       0.03961931      -0.04424208       0.01267478
H        1.25685616      -3.10457994       1.54028736      -0.01046828      -0.00973956       0.03588752
H        1.53455245       3.23560982      -1.09901879       0.01193419       0.17915492       0.18049462
H        2.26776906       3.45625771       0.50699856      -0.30687660      -0.11974600      -0.06610709
H        0.66427904       4.13837230       0.17162716       0.22922681       0.18685706      -0.12387644
H       -0.85424721       1.37633016       1.93873287      -0.19457687       0.11974879       0.25741881
H       -0.97728700       3.16185957       1.39957612       0.34383911       0.25021279       1.13487983
H       -3.77545636      -1.05983344      -1.19086229       0.02419000      -0.01806716       0.01609563
H       -2.37098216      -1.40150348      -2.20670294      -0.01047632      -0.02156559       0.00243417
H       -2.80827956      -2.50684449      -0.89799536       0.01309313       0.01782522       0.00259157
H       -1.90117995      -0.33486275       1.97762908       0.00660874      -0.00389645       0.00075024
H       -3.47757737      -0.52474754       1.22575141       0.01112900       0.00243576       0.00233174
H       -2.43419702      -1.92316620       1.45569263       0.00586313       0.03397633      -0.03123102
40
Properties=species:S:1:pos:R:3:forces:R:3 charge=1 spin=1 energy=-15953.280002672282 free_energy=-15953.280002672282 stress="0.8919842839241028 0.8856988549232483 -0.3212341070175171 0.8856988549232483 -0.5169484615325928 -1.6480945348739624 -0.3212341070175171 -1.6480945348739624 -3.9090394973754883" pbc="F F F"
C       -1.88966325       0.77529150      -0.71080063       0.20123431       0.40215638       0.00955178
C       -0.98373665       1.87996623      -0.16726031      -0.92937493      -1.06499195      -2.42026520
C        0.64237220       2.06268226       0.49489677      -0.43024936      -0.32689002      -0.53269559
C       -1.86721885      -0.67986439      -0.21209399       0.04900051       0.10361201      -0.02807308
C        1.01770401       0.81561972       0.04823571       0.23468816      -0.06697062      -0.02680567
C       -0.45025981      -1.22790932      -0.32113852      -0.01693052      -0.04557383       0.00173063
C        0.58675034      -0.53166209       0.56399323       0.11073969      -0.02076708      -0.04372783
C        1.94958074      -1.28131624       0.54099850      -0.02885918       0.00182909       0.02314430
C        2.59213380      -0.81596102      -0.76737424       0.06898736       0.05586054      -0.04023181
C        2.22329767       0.66729330      -0.84148133       0.04057137      -0.21541429       0.15408656
C        1.87675890      -2.79080838       0.69020249       0.02832717       0.02691887       0.01764329
C        1.34784953       3.29583102       0.03491663       0.06618296       0.28149807      -0.00455418
C       -0.70177892       2.15104901       1.17191305       0.23385854       0.56572652       2.22470903
C       -2.76259222      -1.46183225      -1.18355468       0.03004781       0.02438273       0.01897270
C       -2.44744878      -0.86260409       1.19572665       0.00335421       0.04527745      -0.04172533
H       -2.90131362       1.17410529      -0.50356282       0.29436311       0.04371736      -0.15290613
H       -0.99731092       2.78488398      -0.78081275      -0.04266452      -0.41998965      -0.16512574
H       -0.13038437      -1.18985557      -1.36853282      -0.01269540      -0.05015960       0.02070053
H       -1.77378624       0.76085601      -1.79611587      -0.03783595       0.04420652      -0.01274761
H       -0.47296908      -2.27854757      -0.03177683      -0.00760733      -0.03387151      -0.04181094
H        0.20751343      -0.45524932       1.58365840      -0.01271345      -0.01144986       0.00365091
H        2.53934489      -0.87607478       1.37067717       0.01602647      -0.00335971       0.00157474
H        3.67124564      -0.95500412      -0.76716893       0.01017887      -0.07231068      -0.03689183
H        2.18800895      -1.37882463      -1.61011897      -0.01351740       0.03091810      -0.01321188
H        3.00824065       1.27535645      -0.38766240       0.13705719       0.07859328      -0.06155778
H        2.07986438       1.06118902      -1.85166163      -0.11979833      -0.00939146       0.08726020
H        1.46080663      -3.26073798      -0.20021734      -0.01828353      -0.02907732      -0.00677887
H        2.87865142      -3.19180245       0.83148903       0.04219008      -0.03259198       0.01318518
H        1.27641773      -3.08716957       1.55017521      -0.01094809      -0.01003144       0.04411826
H        1.59020933       3.23743228      -1.03036764      -0.02373437       0.15449017       0.17420544
H        2.28595734       3.45694506       0.58931204      -0.34762216      -0.11715174      -0.08407248
H        0.69036915       4.14498511       0.22038259       0.23708171       0.17071255      -0.12414741
H       -0.90260834       1.37596681       1.90547276      -0.14091836       0.39839801       0.02178087
H       -1.02603424       3.16433190       1.35637188       0.36128506       0.11611544       1.03807902
H       -3.77740840      -1.05822795      -1.18929446       0.02254016      -0.02260980       0.01319006
H       -2.37272018      -1.40956331      -2.20178294      -0.01253650      -0.02768069      -0.00405616
H       -2.81968565      -2.51161680      -0.89373597       0.00352548       0.00488445       0.00581803
H       -1.90178291      -0.34414168       1.98223643       0.00654194       0.00400342      -0.00415767
H       -3.48047497      -0.51248181       1.22795309       0.00886777       0.00978603       0.00008434
H       -2.45389935      -1.92252962       1.45790346      -0.00036046       0.01719600      -0.02794281
40
Properties=species:S:1:pos:R:3:forces:R:3 charge=1 spin=1 energy=-15953.281838018496 free_energy=-15953.281838018496 stress="1.0869767665863037 0.5026925206184387 0.05338407680392265 0.5026925206184387 -0.16290466487407684 -1.5418847799301147 0.05338407680392265 -1.5418847799301147 -3.028860092163086" pbc="F F F"
C       -1.87787480       0.76247408      -0.71597769       0.45446450       0.27948448      -0.09014513
C       -0.89145046       1.83526051      -0.21401214      -1.16507173      -0.72417504      -1.75036192
C        0.65539124       2.06924696       0.54549226      -0.10520171      -0.18983315      -0.57206786
C       -1.86995945      -0.68847391      -0.21017946       0.01683473       0.09318113      -0.03491996
C        0.97293315       0.82668156       0.02781939       0.58616126      -0.23821461       0.18179257
C       -0.45615854      -1.24534062      -0.30557089      -0.04430183      -0.05456017      -0.01057608
C        0.57762257      -0.53176296       0.56509573      -0.03977510       0.01379933      -0.07812443
C        1.94732529      -1.26505221       0.53285678      -0.02732979       0.04883620       0.00904299
C        2.56805430      -0.80449155      -0.78680595       0.03358303       0.07286433      -0.05736878
C        2.18409983       0.67638205      -0.87242803      -0.02037712      -0.16382484       0.09311796
C        1.89023772      -2.77508799       0.69412534       0.01968838       0.03243086       0.01775292
C        1.36744584       3.30157716       0.09146833       0.10979456       0.24298315       0.08114304
C       -0.69663209       2.16127956       1.15867829      -0.17601709       0.36978370       1.78363609
C       -2.76812296      -1.46663253      -1.18114815       0.02853448       0.00651660       0.01936197
C       -2.45561718      -0.85994425       1.19683522       0.00706257       0.03413957      -0.03571235
H       -2.86791078       1.19312487      -0.49094276       0.26766932       0.09056421      -0.06061548
H       -0.89878692       2.71820190      -0.85591346       0.07147530      -0.36179689      -0.15370727
H       -0.13369710      -1.22397142      -1.35229588      -0.00694636      -0.05618980       0.00283150
H       -1.78969432       0.74203137      -1.80439107      -0.00854926       0.00205296       0.01579694
H       -0.48264981      -2.29087128       0.00017724      -0.00795296      -0.04750483      -0.03699335
H        0.20990994      -0.45261427       1.58856403      -0.01929502      -0.00427246       0.00566255
H        2.54416425      -0.84937142       1.35173929       0.01398516       0.00950664       0.01317662
H        3.64870609      -0.93508371      -0.79875926      -0.00176843      -0.04022187      -0.03477015
H        2.16123161      -1.38080507      -1.61898347      -0.02528734       0.03491100      -0.01438534