40
Properties=species:S:1:pos:R:3:forces:R:3 charge=1 spin=1 energy=-15953.280002672282 stress="0.8919842839241028 0.8856988549232483 -0.3212341070175171 0.8856988549232483 -0.5169484615325928 -1.6480945348739624 -0.3212341070175171 -1.6480945348739624 -3.9090394973754883" free_energy=-15953.280002672282 pbc="F F F"
C       -1.88966325       0.77529150      -0.71080063       0.20123431       0.40215638       0.00955178
C       -0.98373665       1.87996623      -0.16726031      -0.92937493      -1.06499195      -2.42026520
C        0.64237220       2.06268226       0.49489677      -0.43024936      -0.32689002      -0.53269559
C       -1.86721885      -0.67986439      -0.21209399       0.04900051       0.10361201      -0.02807308
C        1.01770401       0.81561972       0.04823571       0.23468816      -0.06697062      -0.02680567
C       -0.45025981      -1.22790932      -0.32113852      -0.01693052      -0.04557383       0.00173063
C        0.58675034      -0.53166209       0.56399323       0.11073969      -0.02076708      -0.04372783
C        1.94958074      -1.28131624       0.54099850      -0.02885918       0.00182909       0.02314430
C        2.59213380      -0.81596102      -0.76737424       0.06898736       0.05586054      -0.04023181
C        2.22329767       0.66729330      -0.84148133       0.04057137      -0.21541429       0.15408656
C        1.87675890      -2.79080838       0.69020249       0.02832717       0.02691887       0.01764329
C        1.34784953       3.29583102       0.03491663       0.06618296       0.28149807      -0.00455418
C       -0.70177892       2.15104901       1.17191305       0.23385854       0.56572652       2.22470903
C       -2.76259222      -1.46183225      -1.18355468       0.03004781       0.02438273       0.01897270
C       -2.44744878      -0.86260409       1.19572665       0.00335421       0.04527745      -0.04172533
H       -2.90131362       1.17410529      -0.50356282       0.29436311       0.04371736      -0.15290613
H       -0.99731092       2.78488398      -0.78081275      -0.04266452      -0.41998965      -0.16512574
H       -0.13038437      -1.18985557      -1.36853282      -0.01269540      -0.05015960       0.02070053
H       -1.77378624       0.76085601      -1.79611587      -0.03783595       0.04420652      -0.01274761
H       -0.47296908      -2.27854757      -0.03177683      -0.00760733      -0.03387151      -0.04181094
H        0.20751343      -0.45524932       1.58365840      -0.01271345      -0.01144986       0.00365091
H        2.53934489      -0.87607478       1.37067717       0.01602647      -0.00335971       0.00157474
H        3.67124564      -0.95500412      -0.76716893       0.01017887      -0.07231068      -0.03689183
H        2.18800895      -1.37882463      -1.61011897      -0.01351740       0.03091810      -0.01321188
H        3.00824065       1.27535645      -0.38766240       0.13705719       0.07859328      -0.06155778
H        2.07986438       1.06118902      -1.85166163      -0.11979833      -0.00939146       0.08726020
H        1.46080663      -3.26073798      -0.20021734      -0.01828353      -0.02907732      -0.00677887
H        2.87865142      -3.19180245       0.83148903       0.04219008      -0.03259198       0.01318518
H        1.27641773      -3.08716957       1.55017521      -0.01094809      -0.01003144       0.04411826
H        1.59020933       3.23743228      -1.03036764      -0.02373437       0.15449017       0.17420544
H        2.28595734       3.45694506       0.58931204      -0.34762216      -0.11715174      -0.08407248
H        0.69036915       4.14498511       0.22038259       0.23708171       0.17071255      -0.12414741
H       -0.90260834       1.37596681       1.90547276      -0.14091836       0.39839801       0.02178087
H       -1.02603424       3.16433190       1.35637188       0.36128506       0.11611544       1.03807902
H       -3.77740840      -1.05822795      -1.18929446       0.02254016      -0.02260980       0.01319006
H       -2.37272018      -1.40956331      -2.20178294      -0.01253650      -0.02768069      -0.00405616
H       -2.81968565      -2.51161680      -0.89373597       0.00352548       0.00488445       0.00581803
H       -1.90178291      -0.34414168       1.98223643       0.00654194       0.00400342      -0.00415767
H       -3.48047497      -0.51248181       1.22795309       0.00886777       0.00978603       0.00008434
H       -2.45389935      -1.92252962       1.45790346      -0.00036046       0.01719600      -0.02794281
