40
Properties=species:S:1:pos:R:3:forces:R:3 charge=1 spin=1 energy=-15953.073184568491 stress="-1.2100536823272705 0.10388890653848648 0.20434415340423584 0.10388890653848648 0.7347912788391113 -0.4416469931602478 0.20434415340423584 -0.4416469931602478 -0.8709211945533752" free_energy=-15953.073184568491 pbc="F F F"
C       -1.79767238       0.74303837      -0.73542127       0.08110279       0.01003509      -0.01225526
C       -0.43777747       1.38797816      -0.73809297      -0.38236570      -0.19563869      -0.37038222
C        0.50287063       2.14817769       0.58437081       0.19445044      -0.22809318      -0.22800916
C       -1.89434120      -0.71658070      -0.22530783      -0.05175670      -0.06355176       0.01214263
C        0.74264988       0.79067498      -0.17625245       0.27697778      -0.07640204       0.25927347
C       -0.50760460      -1.36563079      -0.23337345      -0.01384500       0.02200164      -0.02025402
C        0.53748125      -0.56267032       0.53971365       0.02384750      -0.00261818      -0.01819918
C        1.93710553      -1.20932314       0.50417425       0.01715646      -0.00629761      -0.01505929
C        2.50515832      -0.74178919      -0.83661063       0.02327806      -0.00857728      -0.00884817
C        2.08103241       0.72637214      -0.93479470       0.07437104      -0.04034004       0.01287276
C        1.96921746      -2.71969339       0.69778046      -0.00043276       0.01861130      -0.00132711
C        1.27861770       3.38365149       0.21878098       0.04226258       0.00090115       0.00790157
C       -0.51939946       2.21862991       1.44528721      -0.20830099       0.00328435       0.44745824
C       -2.81406925      -1.46808585      -1.19589503      -0.00377238      -0.01848170       0.00558787
C       -2.51207276      -0.82260813       1.17444609      -0.00588401       0.00968276      -0.00852017
H       -2.55045423       1.38885474      -0.28568324      -0.06757315       0.01255774      -0.01055220
H       -0.29488610       2.16484459      -1.48255101      -0.01675711       0.07813098       0.01592258
H       -0.17031074      -1.49744085      -1.26824881      -0.01747629       0.01422464      -0.00633094
H       -2.04168359       0.74357712      -1.80245389      -0.01227850       0.00165869      -0.08509608
H       -0.59156130      -2.37037296       0.18663902      -0.00496852       0.05948566       0.00728136
H        0.20718782      -0.43188171       1.57205109       0.01662521       0.01910449      -0.02586639
H        2.52975144      -0.74518927       1.30082058      -0.00990920       0.02612159      -0.01224672
H        3.58757969      -0.84740000      -0.88660275       0.01036799      -0.00026825      -0.02562307
H        2.08851761      -1.33823759      -1.65145461      -0.03781759       0.03884015      -0.00328924
H        2.82059580       1.33724084      -0.41750835      -0.00225404       0.01498265      -0.04515215
H        1.99092306       1.09114219      -1.95770096       0.06225860       0.00962365       0.01296359
H        1.53457641      -3.24143287      -0.15659827      -0.00379195       0.01820291       0.01256643
H        2.99786823      -3.06545988       0.80057735      -0.00582569       0.02004880      -0.00764435
H        1.42717715      -3.03032639       1.59299397       0.01700816       0.04085196       0.00746590
H        1.88952766       3.24525975      -0.66794470      -0.00972956       0.01277412      -0.02415673
H        1.94226029       3.64101991       1.04440986       0.06374558      -0.01313911      -0.01082300
H        0.60993342       4.22858127       0.05125004       0.03084376      -0.02498383       0.03445683
H       -1.13605811       1.37797140       1.72230646       0.05059275      -0.05802092      -0.06822824
H       -0.73201692       3.15204143       1.94005939      -0.13090080       0.23617628       0.13020012
H       -3.80932350      -1.01738188      -1.21523531       0.02503774      -0.02130885      -0.00477390
H       -2.41289087      -1.45008893      -2.21232860      -0.00340239      -0.00340342       0.03195433
H       -2.92647477      -2.51233665      -0.89868472       0.01227498       0.03887011       0.02289209
H       -1.89846549      -0.38188691       1.96180354      -0.03703406      -0.01872582       0.00075288
H       -3.49898102      -0.35635173       1.20819180       0.03357464       0.01088834      -0.00433542
H       -2.63398800      -1.87688685       1.43308701      -0.02969975       0.06279161      -0.00471906
